IRIX64 gwdu43 6.2 03131015 IP21
 Entering Gaussian System, Link 0=g94
 Initial command:
 /usr/product/gaussian/g94/l1.exe /usr/localtmp/g94-19060.inp -scrdir=/usr/localtmp/
 Entering Link 1 = /usr/product/gaussian/g94/l1.exe PID=     19066.
 Cite this work as:
 Gaussian 94, Revision D.3,
 M. J. Frisch, G. W. Trucks, H. B. Schlegel, P. M. W. Gill,
 B. G. Johnson, M. A. Robb, J. R. Cheeseman, T. Keith,
 G. A. Petersson, J. A. Montgomery, K. Raghavachari,
 M. A. Al-Laham, V. G. Zakrzewski, J. V. Ortiz, J. B. Foresman,
 J. Cioslowski, B. B. Stefanov, A. Nanayakkara, M. Challacombe,
 C. Y. Peng, P. Y. Ayala, W. Chen, M. W. Wong, J. L. Andres,
 E. S. Replogle, R. Gomperts, R. L. Martin, D. J. Fox,
 J. S. Binkley, D. J. Defrees, J. Baker, J. P. Stewart,
 M. Head-Gordon, C. Gonzalez, and J. A. Pople,
 Gaussian, Inc., Pittsburgh PA, 1995.
  
 ***************************************
 Gaussian 94:  SGI-G94RevD.4  6-Jul-1996
               25-Nov-1998
 ***************************************
 %Chk=TMS
 %NProc=6
 This run will use up to    6 processors.
 ---------------------
 #T B3LYP/6-31G(d) Opt
 ---------------------
 --------------
 TMS, Opt + NMR
 --------------
 Symbolic Z-matrix:
    Charge = 0 Multiplicity = 1
 C
 Si    1     rsic
 C     2     rsic      1     acsic
 C     2     rsic      1     acsic     3     dtet      0
 C     2     rsic      1     acsic     3     -dtet     0
 H     1     rch       2     ach       3     d6        0
 H     1     rch       2     ach       3     d7        0
 H     1     rch       2     ach       3     d8        0
 H     3     rch       2     ach       1     d9        0
 H     3     rch       2     ach       1     d10       0
 H     3     rch       2     ach       1     d11       0
 H     4     rch       2     ach       1     d12       0
 H     4     rch       2     ach       1     d13       0
 H     4     rch       2     ach       1     d14       0
 H     5     rch       2     ach       1     d15       0
 H     5     rch       2     ach       1     d16       0
 H     5     rch       2     ach       1     d17       0
       Variables:
  rsic                  1.86796                  
  acsic               109.47122                  
  rch                   1.07779                  
  ach                 111.57967                  
  d6                    0.                       
  d7                  120.                       
  d8                 -120.                       
  d9                    0.                       
  d10                 120.                       
  d11                -120.                       
  d12                   0.                       
  d13                 120.                       
  d14                -120.                       
  d15                   0.                       
  d16                 120.                       
  d17                -120.                       
  dtet                120.                       

 GradGradGradGradGradGradGradGradGradGradGradGradGradGradGradGradGradGrad
 Initialization pass.
                         ----------------------------
                         !    Initial Parameters    !
                         ! (Angstroms and Degrees)  !
 ------------------------                            -------------------------
 ! Name  Definition              Value          Derivative Info.             !
 -----------------------------------------------------------------------------
 ! R1    R(2,1)                  1.868          estimate D2E/DX2             !
 ! R2    R(3,2)                  1.868          estimate D2E/DX2             !
 ! R3    R(4,2)                  1.868          estimate D2E/DX2             !
 ! R4    R(5,2)                  1.868          estimate D2E/DX2             !
 ! R5    R(6,1)                  1.0778         estimate D2E/DX2             !
 ! R6    R(7,1)                  1.0778         estimate D2E/DX2             !
 ! R7    R(8,1)                  1.0778         estimate D2E/DX2             !
 ! R8    R(9,3)                  1.0778         estimate D2E/DX2             !
 ! R9    R(10,3)                 1.0778         estimate D2E/DX2             !
 ! R10   R(11,3)                 1.0778         estimate D2E/DX2             !
 ! R11   R(12,4)                 1.0778         estimate D2E/DX2             !
 ! R12   R(13,4)                 1.0778         estimate D2E/DX2             !
 ! R13   R(14,4)                 1.0778         estimate D2E/DX2             !
 ! R14   R(15,5)                 1.0778         estimate D2E/DX2             !
 ! R15   R(16,5)                 1.0778         estimate D2E/DX2             !
 ! R16   R(17,5)                 1.0778         estimate D2E/DX2             !
 ! A1    A(1,2,3)              109.4712         estimate D2E/DX2             !
 ! A2    A(1,2,4)              109.4712         estimate D2E/DX2             !
 ! A3    A(3,2,4)              109.4712         estimate D2E/DX2             !
 ! A4    A(1,2,5)              109.4712         estimate D2E/DX2             !
 ! A5    A(3,2,5)              109.4712         estimate D2E/DX2             !
 ! A6    A(4,2,5)              109.4712         estimate D2E/DX2             !
 ! A7    A(2,1,6)              111.5797         estimate D2E/DX2             !
 ! A8    A(2,1,7)              111.5797         estimate D2E/DX2             !
 ! A9    A(6,1,7)              107.2829         estimate D2E/DX2             !
 ! A10   A(2,1,8)              111.5797         estimate D2E/DX2             !
 ! A11   A(6,1,8)              107.2829         estimate D2E/DX2             !
 ! A12   A(7,1,8)              107.2829         estimate D2E/DX2             !
 ! A13   A(2,3,9)              111.5797         estimate D2E/DX2             !
 ! A14   A(2,3,10)             111.5797         estimate D2E/DX2             !
 ! A15   A(9,3,10)             107.2829         estimate D2E/DX2             !
 ! A16   A(2,3,11)             111.5797         estimate D2E/DX2             !
 ! A17   A(9,3,11)             107.2829         estimate D2E/DX2             !
 ! A18   A(10,3,11)            107.2829         estimate D2E/DX2             !
 ! A19   A(2,4,12)             111.5797         estimate D2E/DX2             !
 ! A20   A(2,4,13)             111.5797         estimate D2E/DX2             !
 ! A21   A(12,4,13)            107.2829         estimate D2E/DX2             !
 ! A22   A(2,4,14)             111.5797         estimate D2E/DX2             !
 ! A23   A(12,4,14)            107.2829         estimate D2E/DX2             !
 ! A24   A(13,4,14)            107.2829         estimate D2E/DX2             !
 ! A25   A(2,5,15)             111.5797         estimate D2E/DX2             !
 ! A26   A(2,5,16)             111.5797         estimate D2E/DX2             !
 ! A27   A(15,5,16)            107.2829         estimate D2E/DX2             !
 ! A28   A(2,5,17)             111.5797         estimate D2E/DX2             !
 ! A29   A(15,5,17)            107.2829         estimate D2E/DX2             !
 ! A30   A(16,5,17)            107.2829         estimate D2E/DX2             !
 ! D1    D(3,2,1,6)              0.             estimate D2E/DX2             !
 ! D2    D(3,2,1,7)            120.             estimate D2E/DX2             !
 ! D3    D(3,2,1,8)           -120.             estimate D2E/DX2             !
 ! D4    D(4,2,1,6)            120.             estimate D2E/DX2             !
 ! D5    D(4,2,1,7)           -120.             estimate D2E/DX2             !
 ! D6    D(4,2,1,8)              0.             estimate D2E/DX2             !
 ! D7    D(5,2,1,6)           -120.             estimate D2E/DX2             !
 ! D8    D(5,2,1,7)              0.             estimate D2E/DX2             !
 ! D9    D(5,2,1,8)            120.             estimate D2E/DX2             !
 ! D10   D(9,3,2,1)              0.             estimate D2E/DX2             !
 ! D11   D(9,3,2,4)           -120.             estimate D2E/DX2             !
 ! D12   D(9,3,2,5)            120.             estimate D2E/DX2             !
 ! D13   D(10,3,2,1)           120.             estimate D2E/DX2             !
 ! D14   D(10,3,2,4)             0.             estimate D2E/DX2             !
 ! D15   D(10,3,2,5)          -120.             estimate D2E/DX2             !
 ! D16   D(11,3,2,1)          -120.             estimate D2E/DX2             !
 ! D17   D(11,3,2,4)           120.             estimate D2E/DX2             !
 ! D18   D(11,3,2,5)             0.             estimate D2E/DX2             !
 ! D19   D(12,4,2,1)             0.             estimate D2E/DX2             !
 ! D20   D(12,4,2,3)           120.             estimate D2E/DX2             !
 ! D21   D(12,4,2,5)          -120.             estimate D2E/DX2             !
 ! D22   D(13,4,2,1)           120.             estimate D2E/DX2             !
 ! D23   D(13,4,2,3)          -120.             estimate D2E/DX2             !
 ! D24   D(13,4,2,5)             0.             estimate D2E/DX2             !
 ! D25   D(14,4,2,1)          -120.             estimate D2E/DX2             !
 ! D26   D(14,4,2,3)             0.             estimate D2E/DX2             !
 ! D27   D(14,4,2,5)           120.             estimate D2E/DX2             !
 ! D28   D(15,5,2,1)             0.             estimate D2E/DX2             !
 ! D29   D(15,5,2,3)          -120.             estimate D2E/DX2             !
 ! D30   D(15,5,2,4)           120.             estimate D2E/DX2             !
 ! D31   D(16,5,2,1)           120.             estimate D2E/DX2             !
 ! D32   D(16,5,2,3)             0.             estimate D2E/DX2             !
 ! D33   D(16,5,2,4)          -120.             estimate D2E/DX2             !
 ! D34   D(17,5,2,1)          -120.             estimate D2E/DX2             !
 ! D35   D(17,5,2,3)           120.             estimate D2E/DX2             !
 ! D36   D(17,5,2,4)             0.             estimate D2E/DX2             !
 -----------------------------------------------------------------------------
 Number of steps in this run=  92 maximum allowed number of steps= 102.
 GradGradGradGradGradGradGradGradGradGradGradGradGradGradGradGradGradGrad

 Framework group  TD[O(Si),4C3(C),6SGD(H2)]
 Deg. of freedom    3
                   Standard orientation:
 ----------------------------------------------------------
 Center     Atomic              Coordinates (Angstroms)
 Number     Number             X           Y           Z
 ----------------------------------------------------------
    1          6          -1.078469    1.078469    1.078469
    2         14           0.000000    0.000000    0.000000
    3          6           1.078469   -1.078469    1.078469
    4          6          -1.078469   -1.078469   -1.078469
    5          6           1.078469    1.078469   -1.078469
    6          1          -0.898168    0.898168    2.125667
    7          1          -0.898168    2.125667    0.898168
    8          1          -2.125667    0.898168    0.898168
    9          1           0.898168   -0.898168    2.125667
   10          1           0.898168   -2.125667    0.898168
   11          1           2.125667   -0.898168    0.898168
   12          1          -2.125667   -0.898168   -0.898168
   13          1          -0.898168   -0.898168   -2.125667
   14          1          -0.898168   -2.125667   -0.898168
   15          1           0.898168    2.125667   -0.898168
   16          1           2.125667    0.898168   -0.898168
   17          1           0.898168    0.898168   -2.125667
 ----------------------------------------------------------
 Rotational constants (GHZ):      3.1371301      3.1371301      3.1371301
 Isotopes: C-12,Si-28,C-12,C-12,C-12,H-1,H-1,H-1,H-1,H-1,H-1,H-1,H-1,H-1,H-1,H-1,
 H-1
   103 basis functions      212 primitive gaussians
    25 alpha electrons       25 beta electrons
       nuclear repulsion energy       248.0687667502 Hartrees.
 Projected CNDO Guess.
 Unable to project orbital  97.
 Initial guess orbital symmetries:
       Occupied  (A1) (A1) (A1) (T2) (T2) (T2) (T2) (A1) (A1) (A1)
                 (T2) (T2) (T2) (E) (E) (T2) (T2) (T2) (A1) (T1)
                 (T1) (T1) (T2) (T2) (T2)
       Virtual   (T2) (T2) (T2) (A1) (E) (E) (T2) (T2) (T2) (A1)
                 (T2) (T2) (T2) (T1) (T1) (T1) (?A) (?A) (?A) (?A)
                 (?A) (?A) (?A) (?A) (?A) (?A) (?A) (?A) (?A) (?A)
                 (?A) (?A) (?A) (?A) (?A) (?A) (?A) (?A) (?A) (?A)
                 (?A) (?A) (?A) (?A) (?A) (?A) (?A) (?A) (?A) (?A)
                 (?A) (?A) (?A) (?A) (?A) (?A) (?A) (?A) (?A) (?A)
                 (?A) (?A) (?A) (?A) (?A) (?A) (?A) (?A) (?A) (?A)
                 (?A) (?A) (?A) (?A) (?A) (?A) (?A) (?A)
 Integral accuracy reduced to 1.0D-05 until final iterations.
 Initial convergence to 1.0D-05 achieved.  Increase integral accuracy.
 Requested number of processors reduced to:    4
 Requested number of processors reduced to:    4
 Requested number of processors reduced to:    4
 Requested number of processors reduced to:    4
 Requested number of processors reduced to:    4
 Requested number of processors reduced to:    4
 SCF Done:  E(RB+HF-LYP) =  -449.176065673     A.U. after   12 cycles
             Convg  =    0.1558D-08             -V/T =  2.0052
             S**2   =   0.0000

 **********************************************************************

            Population analysis using the SCF density.

 **********************************************************************

 Orbital Symmetries:
       Occupied  (A1) (T2) (T2) (T2) (A1) (A1) (T2) (T2) (T2) (A1)
                 (T2) (T2) (T2) (A1) (T2) (T2) (T2) (E) (E) (?A)
                 (T1) (?A) (T2) (T2) (T2)
       Virtual   (A1) (T2) (T2) (T2) (T2) (T2) (T2) (E) (E) (?A)
                 (T1) (?A) (A1) (T2) (T2) (T2) (A1) (T2) (T2) (T2)
                 (E) (E) (T2) (T2) (T2) (A1) (T1) (T1) (T1) (T2)
                 (T2) (T2) (E) (E) (T2) (T2) (T2) (E) (E) (T1)
                 (T1) (T1) (T2) (T2) (T2) (A1) (?A) (T2) (?A) (T2)
                 (T2) (T2) (A1) (T1) (T1) (T1) (T2) (T2) (T2) (E)
                 (E) (A1) (T2) (T2) (T2) (E) (E) (T1) (T1) (T1)
                 (T2) (T2) (T2) (A1) (A1) (T2) (T2) (T2)
 Unable to determine electronic state: an orbital has unidentified symmetry.
 Alpha  occ. eigenvalues --  -66.10148 -10.14410 -10.14410 -10.14410 -10.14410
 Alpha  occ. eigenvalues --   -5.24871  -3.60728  -3.60728  -3.60728  -0.71867
 Alpha  occ. eigenvalues --   -0.67441  -0.67441  -0.67441  -0.45324  -0.40728
 Alpha  occ. eigenvalues --   -0.40728  -0.40728  -0.40467  -0.40467  -0.36909
 Alpha  occ. eigenvalues --   -0.36909  -0.36909  -0.28818  -0.28818  -0.28818
 Alpha virt. eigenvalues --    0.08204   0.08369   0.08369   0.08369   0.13264
 Alpha virt. eigenvalues --    0.13264   0.13264   0.15900   0.15900   0.22617
 Alpha virt. eigenvalues --    0.22617   0.22617   0.23146   0.26427   0.26427
 Alpha virt. eigenvalues --    0.26427   0.36435   0.38474   0.38474   0.38474
 Alpha virt. eigenvalues --    0.46029   0.46029   0.57913   0.57913   0.57913
 Alpha virt. eigenvalues --    0.61346   0.67511   0.67511   0.67511   0.79040
 Alpha virt. eigenvalues --    0.79040   0.79040   0.81282   0.81282   0.90964
 Alpha virt. eigenvalues --    0.90964   0.90964   0.91726   0.91726   0.95905
 Alpha virt. eigenvalues --    0.95905   0.95905   0.96179   0.96179   0.96179
 Alpha virt. eigenvalues --    0.96850   1.05896   1.05896   1.05896   1.23953
 Alpha virt. eigenvalues --    1.23953   1.23953   1.41009   1.67343   1.67343
 Alpha virt. eigenvalues --    1.67343   1.78403   1.78403   1.78403   1.83850
 Alpha virt. eigenvalues --    1.83850   2.04471   2.26366   2.26366   2.26366
 Alpha virt. eigenvalues --    2.26497   2.26497   2.33432   2.33432   2.33432
 Alpha virt. eigenvalues --    2.33682   2.33682   2.33682   3.10595   4.17946
 Alpha virt. eigenvalues --    4.23599   4.23599   4.23599
 Electronic spatial extent (au):  <R**2>=   654.0924
 Charge=     0.0000 electrons
 Dipole moment (Debye):
    X=     0.0000    Y=     0.0000    Z=     0.0000  Tot=     0.0000
 Requested number of processors reduced to:    3

 GradGradGradGradGradGradGradGradGradGradGradGradGradGradGradGradGradGrad
 Step number   1 out of a maximum of  92
 All quantities printed in internal units (Hartrees-Bohrs-Radians)
 Second derivative matrix not updated -- first step.
     Eigenvalues ---    0.01192   0.01192   0.01192   0.01192   0.05520
     Eigenvalues ---    0.05520   0.05520   0.05976   0.05976   0.05976
     Eigenvalues ---    0.05976   0.05976   0.05976   0.05976   0.05976
     Eigenvalues ---    0.14796   0.14796   0.16000   0.16000   0.16000
     Eigenvalues ---    0.16000   0.16000   0.16000   0.16000   0.16000
     Eigenvalues ---    0.16000   0.16000   0.16000   0.16000   0.21419
     Eigenvalues ---    0.21419   0.21419   0.21419   0.36262   0.36262
     Eigenvalues ---    0.36262   0.36262   0.36262   0.36262   0.36262
     Eigenvalues ---    0.36262   0.36262   0.36262   0.36262   0.36262
     Eigenvalues --- 1000.000001000.000001000.000001000.000001000.00000
     Eigenvalues --- 1000.000001000.000001000.000001000.000001000.00000
     Eigenvalues --- 1000.000001000.000001000.000001000.000001000.00000
     Eigenvalues --- 1000.000001000.000001000.000001000.000001000.00000
     Eigenvalues --- 1000.000001000.000001000.000001000.000001000.00000
     Eigenvalues --- 1000.000001000.000001000.000001000.000001000.00000
     Eigenvalues --- 1000.000001000.000001000.000001000.000001000.00000
     Eigenvalues --- 1000.000001000.00000
 Linear search not attempted -- first point.
 Iteration  1 RMS(Cart)=  0.04150987 RMS(Int)=  0.00003228
 Iteration  2 RMS(Cart)=  0.00004419 RMS(Int)=  0.00000369
 Iteration  3 RMS(Cart)=  0.00000057 RMS(Int)=  0.00000367
 Variable       Old X    -DE/DX   Delta X   Delta X   Delta X     New X
                                 (Linear)    (Quad)   (Total)
    R1        3.52994   0.01692   0.00000   0.07534   0.07534   3.60528
    R2        3.52994   0.01692   0.00000   0.07534   0.07534   3.60528
    R3        3.52994   0.01692   0.00000   0.07534   0.07534   3.60528
    R4        3.52994   0.01692   0.00000   0.07534   0.07534   3.60528
    R5        2.03674   0.01272   0.00000   0.03410   0.03410   2.07083
    R6        2.03674   0.01272   0.00000   0.03410   0.03410   2.07083
    R7        2.03674   0.01272   0.00000   0.03410   0.03410   2.07083
    R8        2.03674   0.01272   0.00000   0.03410   0.03410   2.07083
    R9        2.03674   0.01272   0.00000   0.03410   0.03410   2.07083
   R10        2.03674   0.01272   0.00000   0.03410   0.03410   2.07083
   R11        2.03674   0.01272   0.00000   0.03410   0.03410   2.07083
   R12        2.03674   0.01272   0.00000   0.03410   0.03410   2.07083
   R13        2.03674   0.01272   0.00000   0.03410   0.03410   2.07083
   R14        2.03674   0.01272   0.00000   0.03410   0.03410   2.07083
   R15        2.03674   0.01272   0.00000   0.03410   0.03410   2.07083
   R16        2.03674   0.01272   0.00000   0.03410   0.03410   2.07083
    A1        1.91063   0.00000   0.00000   0.00000   0.00000   1.91063
    A2        1.91063   0.00000   0.00000   0.00000   0.00000   1.91063
    A3        1.91063   0.00000   0.00000   0.00000   0.00000   1.91063
    A4        1.91063   0.00000   0.00000   0.00000   0.00000   1.91063
    A5        1.91063   0.00000   0.00000   0.00000   0.00000   1.91063
    A6        1.91063   0.00000   0.00000   0.00000   0.00000   1.91063
    A7        1.94743   0.00065   0.00000   0.00383   0.00382   1.95125
    A8        1.94743   0.00065   0.00000   0.00383   0.00382   1.95125
    A9        1.87244  -0.00070   0.00000  -0.00411  -0.00412   1.86832
   A10        1.94743   0.00065   0.00000   0.00383   0.00382   1.95125
   A11        1.87244  -0.00070   0.00000  -0.00411  -0.00412   1.86832
   A12        1.87244  -0.00070   0.00000  -0.00411  -0.00412   1.86832
   A13        1.94743   0.00065   0.00000   0.00383   0.00382   1.95125
   A14        1.94743   0.00065   0.00000   0.00383   0.00382   1.95125
   A15        1.87244  -0.00070   0.00000  -0.00411  -0.00412   1.86832
   A16        1.94743   0.00065   0.00000   0.00383   0.00382   1.95125
   A17        1.87244  -0.00070   0.00000  -0.00411  -0.00412   1.86832
   A18        1.87244  -0.00070   0.00000  -0.00411  -0.00412   1.86832
   A19        1.94743   0.00065   0.00000   0.00383   0.00382   1.95125
   A20        1.94743   0.00065   0.00000   0.00383   0.00382   1.95125
   A21        1.87244  -0.00070   0.00000  -0.00411  -0.00412   1.86832
   A22        1.94743   0.00065   0.00000   0.00383   0.00382   1.95125
   A23        1.87244  -0.00070   0.00000  -0.00411  -0.00412   1.86832
   A24        1.87244  -0.00070   0.00000  -0.00411  -0.00412   1.86832
   A25        1.94743   0.00065   0.00000   0.00383   0.00382   1.95125
   A26        1.94743   0.00065   0.00000   0.00383   0.00382   1.95125
   A27        1.87244  -0.00070   0.00000  -0.00411  -0.00412   1.86832
   A28        1.94743   0.00065   0.00000   0.00383   0.00382   1.95125
   A29        1.87244  -0.00070   0.00000  -0.00411  -0.00412   1.86832
   A30        1.87244  -0.00070   0.00000  -0.00411  -0.00412   1.86832
    D1        0.00000   0.00000   0.00000   0.00000   0.00000   0.00000
    D2        2.09440   0.00000   0.00000   0.00000   0.00000   2.09440
    D3       -2.09440   0.00000   0.00000   0.00000   0.00000  -2.09440
    D4        2.09440   0.00000   0.00000   0.00000   0.00000   2.09440
    D5       -2.09440   0.00000   0.00000   0.00000   0.00000  -2.09440
    D6        0.00000   0.00000   0.00000   0.00000   0.00000   0.00000
    D7       -2.09440   0.00000   0.00000   0.00000   0.00000  -2.09440
    D8        0.00000   0.00000   0.00000   0.00000   0.00000   0.00000
    D9        2.09440   0.00000   0.00000   0.00000   0.00000   2.09440
   D10        0.00000   0.00000   0.00000   0.00000   0.00000   0.00000
   D11       -2.09440   0.00000   0.00000   0.00000   0.00000  -2.09440
   D12        2.09440   0.00000   0.00000   0.00000   0.00000   2.09440
   D13        2.09440   0.00000   0.00000   0.00000   0.00000   2.09440
   D14        0.00000   0.00000   0.00000   0.00000   0.00000   0.00000
   D15       -2.09440   0.00000   0.00000   0.00000   0.00000  -2.09440
   D16       -2.09440   0.00000   0.00000   0.00000   0.00000  -2.09440
   D17        2.09440   0.00000   0.00000   0.00000   0.00000   2.09440
   D18        0.00000   0.00000   0.00000   0.00000   0.00000   0.00000
   D19        0.00000   0.00000   0.00000   0.00000   0.00000   0.00000
   D20        2.09440   0.00000   0.00000   0.00000   0.00000   2.09440
   D21       -2.09440   0.00000   0.00000   0.00000   0.00000  -2.09440
   D22        2.09440   0.00000   0.00000   0.00000   0.00000   2.09440
   D23       -2.09440   0.00000   0.00000   0.00000   0.00000  -2.09440
   D24        0.00000   0.00000   0.00000   0.00000   0.00000   0.00000
   D25       -2.09440   0.00000   0.00000   0.00000   0.00000  -2.09440
   D26        0.00000   0.00000   0.00000   0.00000   0.00000   0.00000
   D27        2.09440   0.00000   0.00000   0.00000   0.00000   2.09440
   D28        0.00000   0.00000   0.00000   0.00000   0.00000   0.00000
   D29       -2.09440   0.00000   0.00000   0.00000   0.00000  -2.09440
   D30        2.09440   0.00000   0.00000   0.00000   0.00000   2.09440
   D31        2.09440   0.00000   0.00000   0.00000   0.00000   2.09440
   D32        0.00000   0.00000   0.00000   0.00000   0.00000   0.00000
   D33       -2.09440   0.00000   0.00000   0.00000   0.00000  -2.09440
   D34       -2.09440   0.00000   0.00000   0.00000   0.00000  -2.09440
   D35        2.09440   0.00000   0.00000   0.00000   0.00000   2.09440
   D36        0.00000   0.00000   0.00000   0.00000   0.00000   0.00000
         Item               Value     Threshold  Converged?
 Maximum Force            0.016918     0.000450     NO 
 RMS     Force            0.006145     0.000300     NO 
 Maximum Displacement     0.099384     0.001800     NO 
 RMS     Displacement     0.041538     0.001200     NO 
 GradGradGradGradGradGradGradGradGradGradGradGradGradGradGradGradGradGrad

 Framework group  TD[O(Si),4C3(C),6SGD(H2)]
 Deg. of freedom    3
                   Standard orientation:
 ----------------------------------------------------------
 Center     Atomic              Coordinates (Angstroms)
 Number     Number             X           Y           Z
 ----------------------------------------------------------
    1          6          -1.101487    1.101487    1.101487
    2         14           0.000000    0.000000    0.000000
    3          6           1.101487   -1.101487    1.101487
    4          6          -1.101487   -1.101487   -1.101487
    5          6           1.101487    1.101487   -1.101487
    6          1          -0.921047    0.921047    2.167200
    7          1          -0.921047    2.167200    0.921047
    8          1          -2.167200    0.921047    0.921047
    9          1           0.921047   -0.921047    2.167200
   10          1           0.921047   -2.167200    0.921047
   11          1           2.167200   -0.921047    0.921047
   12          1          -2.167200   -0.921047   -0.921047
   13          1          -0.921047   -0.921047   -2.167200
   14          1          -0.921047   -2.167200   -0.921047
   15          1           0.921047    2.167200   -0.921047
   16          1           2.167200    0.921047   -0.921047
   17          1           0.921047    0.921047   -2.167200
 ----------------------------------------------------------
 Rotational constants (GHZ):      3.0078180      3.0078180      3.0078180
 Isotopes: C-12,Si-28,C-12,C-12,C-12,H-1,H-1,H-1,H-1,H-1,H-1,H-1,H-1,H-1,H-1,H-1,
 H-1
   103 basis functions      212 primitive gaussians
    25 alpha electrons       25 beta electrons
       nuclear repulsion energy       243.0598669561 Hartrees.
 Initial guess read from the read-write file:
 Initial guess orbital symmetries:
       Occupied  (A1) (T2) (T2) (T2) (A1) (A1) (T2) (T2) (T2) (A1)
                 (T2) (T2) (T2) (A1) (T2) (T2) (T2) (E) (E) (?A)
                 (T1) (?A) (T2) (T2) (T2)
       Virtual   (A1) (T2) (T2) (T2) (T2) (T2) (T2) (E) (E) (?A)
                 (T1) (?A) (A1) (T2) (T2) (T2) (A1) (T2) (T2) (T2)
                 (E) (E) (T2) (T2) (T2) (A1) (T1) (T1) (T1) (T2)
                 (T2) (T2) (E) (E) (T2) (T2) (T2) (E) (E) (T1)
                 (T1) (T1) (T2) (T2) (T2) (A1) (?A) (T2) (?A) (T2)
                 (T2) (T2) (A1) (T1) (T1) (T1) (T2) (T2) (T2) (E)
                 (E) (A1) (T2) (T2) (T2) (E) (E) (T1) (T1) (T1)
                 (T2) (T2) (T2) (A1) (A1) (T2) (T2) (T2)
 Integral accuracy reduced to 1.0D-05 until final iterations.
 Initial convergence to 1.0D-05 achieved.  Increase integral accuracy.
 Requested number of processors reduced to:    4
 Requested number of processors reduced to:    4
 Requested number of processors reduced to:    4
 Requested number of processors reduced to:    4
 Requested number of processors reduced to:    4
 Requested number of processors reduced to:    4
 SCF Done:  E(RB+HF-LYP) =  -449.181319552     A.U. after   10 cycles
             Convg  =    0.1111D-08             -V/T =  2.0063
             S**2   =   0.0000
 Requested number of processors reduced to:    3

 GradGradGradGradGradGradGradGradGradGradGradGradGradGradGradGradGradGrad
 Step number   2 out of a maximum of  92
 All quantities printed in internal units (Hartrees-Bohrs-Radians)
 Trust test= 1.05D+00 RLast= 1.92D-01 DXMaxT set to 4.24D-01
     Eigenvalues ---    0.01192   0.01192   0.01192   0.01192   0.05520
     Eigenvalues ---    0.05520   0.05520   0.05938   0.05938   0.05938
     Eigenvalues ---    0.05938   0.05938   0.05938   0.05938   0.05938
     Eigenvalues ---    0.14796   0.14796   0.16000   0.16000   0.16000
     Eigenvalues ---    0.16000   0.16000   0.16000   0.16000   0.16000
     Eigenvalues ---    0.16000   0.16000   0.16000   0.16052   0.21419
     Eigenvalues ---    0.21419   0.21419   0.21419   0.36211   0.36262
     Eigenvalues ---    0.36262   0.36262   0.36262   0.36262   0.36262
     Eigenvalues ---    0.36262   0.36262   0.36262   0.36262   0.36262
     Eigenvalues --- 1000.000001000.000001000.000001000.000001000.00000
     Eigenvalues --- 1000.000001000.000001000.000001000.000001000.00000
     Eigenvalues --- 1000.000001000.000001000.000001000.000001000.00000
     Eigenvalues --- 1000.000001000.000001000.000001000.000001000.00000
     Eigenvalues --- 1000.000001000.000001000.000001000.000001000.00000
     Eigenvalues --- 1000.000001000.000001000.000001000.000001000.00000
     Eigenvalues --- 1000.000001000.000001000.000001000.000001000.00000
     Eigenvalues --- 1000.000001000.00000
 Quartic linear search produced a step of  0.03924.
 Iteration  1 RMS(Cart)=  0.00137306 RMS(Int)=  0.00000209
 Iteration  2 RMS(Cart)=  0.00000233 RMS(Int)=  0.00000093
 Variable       Old X    -DE/DX   Delta X   Delta X   Delta X     New X
                                 (Linear)    (Quad)   (Total)
    R1        3.60528   0.00080   0.00296   0.00118   0.00414   3.60942
    R2        3.60528   0.00080   0.00296   0.00118   0.00414   3.60942
    R3        3.60528   0.00080   0.00296   0.00118   0.00414   3.60942
    R4        3.60528   0.00080   0.00296   0.00118   0.00414   3.60942
    R5        2.07083   0.00037   0.00134  -0.00020   0.00114   2.07197
    R6        2.07083   0.00037   0.00134  -0.00020   0.00114   2.07197
    R7        2.07083   0.00037   0.00134  -0.00020   0.00114   2.07197
    R8        2.07083   0.00037   0.00134  -0.00020   0.00114   2.07197
    R9        2.07083   0.00037   0.00134  -0.00020   0.00114   2.07197
   R10        2.07083   0.00037   0.00134  -0.00020   0.00114   2.07197
   R11        2.07083   0.00037   0.00134  -0.00020   0.00114   2.07197
   R12        2.07083   0.00037   0.00134  -0.00020   0.00114   2.07197
   R13        2.07083   0.00037   0.00134  -0.00020   0.00114   2.07197
   R14        2.07083   0.00037   0.00134  -0.00020   0.00114   2.07197
   R15        2.07083   0.00037   0.00134  -0.00020   0.00114   2.07197
   R16        2.07083   0.00037   0.00134  -0.00020   0.00114   2.07197
    A1        1.91063   0.00000   0.00000   0.00000   0.00000   1.91063
    A2        1.91063   0.00000   0.00000   0.00000   0.00000   1.91063
    A3        1.91063   0.00000   0.00000   0.00000   0.00000   1.91063
    A4        1.91063   0.00000   0.00000   0.00000   0.00000   1.91063
    A5        1.91063   0.00000   0.00000   0.00000   0.00000   1.91063
    A6        1.91063   0.00000   0.00000   0.00000   0.00000   1.91063
    A7        1.95125  -0.00028   0.00015  -0.00193  -0.00178   1.94948
    A8        1.95125  -0.00028   0.00015  -0.00193  -0.00178   1.94948
    A9        1.86832   0.00030  -0.00016   0.00208   0.00192   1.87024
   A10        1.95125  -0.00028   0.00015  -0.00193  -0.00178   1.94948
   A11        1.86832   0.00030  -0.00016   0.00208   0.00192   1.87024
   A12        1.86832   0.00030  -0.00016   0.00208   0.00192   1.87024
   A13        1.95125  -0.00028   0.00015  -0.00193  -0.00178   1.94948
   A14        1.95125  -0.00028   0.00015  -0.00193  -0.00178   1.94948
   A15        1.86832   0.00030  -0.00016   0.00208   0.00192   1.87024
   A16        1.95125  -0.00028   0.00015  -0.00193  -0.00178   1.94948
   A17        1.86832   0.00030  -0.00016   0.00208   0.00192   1.87024
   A18        1.86832   0.00030  -0.00016   0.00208   0.00192   1.87024
   A19        1.95125  -0.00028   0.00015  -0.00193  -0.00178   1.94948
   A20        1.95125  -0.00028   0.00015  -0.00193  -0.00178   1.94948
   A21        1.86832   0.00030  -0.00016   0.00208   0.00192   1.87024
   A22        1.95125  -0.00028   0.00015  -0.00193  -0.00178   1.94948
   A23        1.86832   0.00030  -0.00016   0.00208   0.00192   1.87024
   A24        1.86832   0.00030  -0.00016   0.00208   0.00192   1.87024
   A25        1.95125  -0.00028   0.00015  -0.00193  -0.00178   1.94948
   A26        1.95125  -0.00028   0.00015  -0.00193  -0.00178   1.94948
   A27        1.86832   0.00030  -0.00016   0.00208   0.00192   1.87024
   A28        1.95125  -0.00028   0.00015  -0.00193  -0.00178   1.94948
   A29        1.86832   0.00030  -0.00016   0.00208   0.00192   1.87024
   A30        1.86832   0.00030  -0.00016   0.00208   0.00192   1.87024
    D1        0.00000   0.00000   0.00000   0.00000   0.00000   0.00000
    D2        2.09440   0.00000   0.00000   0.00000   0.00000   2.09440
    D3       -2.09440   0.00000   0.00000   0.00000   0.00000  -2.09440
    D4        2.09440   0.00000   0.00000   0.00000   0.00000   2.09440
    D5       -2.09440   0.00000   0.00000   0.00000   0.00000  -2.09440
    D6        0.00000   0.00000   0.00000   0.00000   0.00000   0.00000
    D7       -2.09440   0.00000   0.00000   0.00000   0.00000  -2.09440
    D8        0.00000   0.00000   0.00000   0.00000   0.00000   0.00000
    D9        2.09440   0.00000   0.00000   0.00000   0.00000   2.09440
   D10        0.00000   0.00000   0.00000   0.00000   0.00000   0.00000
   D11       -2.09440   0.00000   0.00000   0.00000   0.00000  -2.09440
   D12        2.09440   0.00000   0.00000   0.00000   0.00000   2.09440
   D13        2.09440   0.00000   0.00000   0.00000   0.00000   2.09440
   D14        0.00000   0.00000   0.00000   0.00000   0.00000   0.00000
   D15       -2.09440   0.00000   0.00000   0.00000   0.00000  -2.09440
   D16       -2.09440   0.00000   0.00000   0.00000   0.00000  -2.09440
   D17        2.09440   0.00000   0.00000   0.00000   0.00000   2.09440
   D18        0.00000   0.00000   0.00000   0.00000   0.00000   0.00000
   D19        0.00000   0.00000   0.00000   0.00000   0.00000   0.00000
   D20        2.09440   0.00000   0.00000   0.00000   0.00000   2.09440
   D21       -2.09440   0.00000   0.00000   0.00000   0.00000  -2.09440
   D22        2.09440   0.00000   0.00000   0.00000   0.00000   2.09440
   D23       -2.09440   0.00000   0.00000   0.00000   0.00000  -2.09440
   D24        0.00000   0.00000   0.00000   0.00000   0.00000   0.00000
   D25       -2.09440   0.00000   0.00000   0.00000   0.00000  -2.09440
   D26        0.00000   0.00000   0.00000   0.00000   0.00000   0.00000
   D27        2.09440   0.00000   0.00000   0.00000   0.00000   2.09440
   D28        0.00000   0.00000   0.00000   0.00000   0.00000   0.00000
   D29       -2.09440   0.00000   0.00000   0.00000   0.00000  -2.09440
   D30        2.09440   0.00000   0.00000   0.00000   0.00000   2.09440
   D31        2.09440   0.00000   0.00000   0.00000   0.00000   2.09440
   D32        0.00000   0.00000   0.00000   0.00000   0.00000   0.00000
   D33       -2.09440   0.00000   0.00000   0.00000   0.00000  -2.09440
   D34       -2.09440   0.00000   0.00000   0.00000   0.00000  -2.09440
   D35        2.09440   0.00000   0.00000   0.00000   0.00000   2.09440
   D36        0.00000   0.00000   0.00000   0.00000   0.00000   0.00000
         Item               Value     Threshold  Converged?
 Maximum Force            0.000804     0.000450     NO 
 RMS     Force            0.000275     0.000300     YES
 Maximum Displacement     0.004137     0.001800     NO 
 RMS     Displacement     0.001372     0.001200     NO 
 GradGradGradGradGradGradGradGradGradGradGradGradGradGradGradGradGradGrad

 Framework group  TD[O(Si),4C3(C),6SGD(H2)]
 Deg. of freedom    3
                   Standard orientation:
 ----------------------------------------------------------
 Center     Atomic              Coordinates (Angstroms)
 Number     Number             X           Y           Z
 ----------------------------------------------------------
    1          6          -1.102751    1.102751    1.102751
    2         14           0.000000    0.000000    0.000000
    3          6           1.102751   -1.102751    1.102751
    4          6          -1.102751   -1.102751   -1.102751
    5          6           1.102751    1.102751   -1.102751
    6          1          -0.920872    0.920872    2.168593
    7          1          -0.920872    2.168593    0.920872
    8          1          -2.168593    0.920872    0.920872
    9          1           0.920872   -0.920872    2.168593
   10          1           0.920872   -2.168593    0.920872
   11          1           2.168593   -0.920872    0.920872
   12          1          -2.168593   -0.920872   -0.920872
   13          1          -0.920872   -0.920872   -2.168593
   14          1          -0.920872   -2.168593   -0.920872
   15          1           0.920872    2.168593   -0.920872
   16          1           2.168593    0.920872   -0.920872
   17          1           0.920872    0.920872   -2.168593
 ----------------------------------------------------------
 Rotational constants (GHZ):      3.0022607      3.0022607      3.0022607
 Isotopes: C-12,Si-28,C-12,C-12,C-12,H-1,H-1,H-1,H-1,H-1,H-1,H-1,H-1,H-1,H-1,H-1,
 H-1
   103 basis functions      212 primitive gaussians
    25 alpha electrons       25 beta electrons
       nuclear repulsion energy       242.8493348054 Hartrees.
 Initial guess read from the read-write file:
 Initial guess orbital symmetries:
       Occupied  (A1) (T2) (T2) (T2) (A1) (A1) (T2) (T2) (T2) (A1)
                 (T2) (T2) (T2) (A1) (T2) (T2) (T2) (E) (E) (T1)
                 (T1) (T1) (T2) (T2) (T2)
       Virtual   (T2) (T2) (T2) (A1) (T2) (T2) (T2) (E) (E) (A1)
                 (?A) (T1) (?A) (T2) (T2) (T2) (A1) (T2) (T2) (T2)
                 (E) (E) (T2) (T2) (T2) (A1) (T1) (T1) (T1) (T2)
                 (T2) (T2) (E) (E) (T2) (T2) (T2) (E) (E) (T2)
                 (T2) (T2) (T1) (T1) (T1) (A1) (T2) (T2) (T2) (T2)
                 (T2) (T2) (A1) (T1) (T1) (T1) (T2) (T2) (T2) (E)
                 (E) (A1) (T2) (T2) (T2) (E) (E) (T2) (T2) (T2)
                 (T1) (T1) (T1) (A1) (A1) (?A) (T2) (?A)
 Requested number of processors reduced to:    4
 Requested number of processors reduced to:    4
 Requested number of processors reduced to:    4
 Requested number of processors reduced to:    4
 Requested number of processors reduced to:    4
 Requested number of processors reduced to:    4
 Requested number of processors reduced to:    4
 SCF Done:  E(RB+HF-LYP) =  -449.181338067     A.U. after    7 cycles
             Convg  =    0.8523D-09             -V/T =  2.0064
             S**2   =   0.0000
 Requested number of processors reduced to:    3

 GradGradGradGradGradGradGradGradGradGradGradGradGradGradGradGradGradGrad
 Step number   3 out of a maximum of  92
 All quantities printed in internal units (Hartrees-Bohrs-Radians)
 Trust test= 1.15D+00 RLast= 1.29D-02 DXMaxT set to 4.24D-01
     Eigenvalues ---    0.01192   0.01192   0.01192   0.01192   0.05520
     Eigenvalues ---    0.05520   0.05520   0.05956   0.05956   0.05956
     Eigenvalues ---    0.05956   0.05956   0.05956   0.05956   0.05956
     Eigenvalues ---    0.11944   0.14796   0.14796   0.16000   0.16000
     Eigenvalues ---    0.16000   0.16000   0.16000   0.16000   0.16000
     Eigenvalues ---    0.16000   0.16000   0.16000   0.16000   0.20392
     Eigenvalues ---    0.21419   0.21419   0.21419   0.36262   0.36262
     Eigenvalues ---    0.36262   0.36262   0.36262   0.36262   0.36262
     Eigenvalues ---    0.36262   0.36262   0.36262   0.36262   0.40329
     Eigenvalues --- 1000.000001000.000001000.000001000.000001000.00000
     Eigenvalues --- 1000.000001000.000001000.000001000.000001000.00000
     Eigenvalues --- 1000.000001000.000001000.000001000.000001000.00000
     Eigenvalues --- 1000.000001000.000001000.000001000.000001000.00000
     Eigenvalues --- 1000.000001000.000001000.000001000.000001000.00000
     Eigenvalues --- 1000.000001000.000001000.000001000.000001000.00000
     Eigenvalues --- 1000.000001000.000001000.000001000.000001000.00000
     Eigenvalues --- 1000.000001000.00000
 Quartic linear search produced a step of  0.23876.
 Iteration  1 RMS(Cart)=  0.00036682 RMS(Int)=  0.00000048
 Iteration  2 RMS(Cart)=  0.00000034 RMS(Int)=  0.00000036
 Variable       Old X    -DE/DX   Delta X   Delta X   Delta X     New X
                                 (Linear)    (Quad)   (Total)
    R1        3.60942   0.00015   0.00099   0.00020   0.00119   3.61060
    R2        3.60942   0.00015   0.00099   0.00020   0.00119   3.61060
    R3        3.60942   0.00015   0.00099   0.00020   0.00119   3.61060
    R4        3.60942   0.00015   0.00099   0.00020   0.00119   3.61060
    R5        2.07197  -0.00008   0.00027  -0.00045  -0.00018   2.07179
    R6        2.07197  -0.00008   0.00027  -0.00045  -0.00018   2.07179
    R7        2.07197  -0.00008   0.00027  -0.00045  -0.00018   2.07179
    R8        2.07197  -0.00008   0.00027  -0.00045  -0.00018   2.07179
    R9        2.07197  -0.00008   0.00027  -0.00045  -0.00018   2.07179
   R10        2.07197  -0.00008   0.00027  -0.00045  -0.00018   2.07179
   R11        2.07197  -0.00008   0.00027  -0.00045  -0.00018   2.07179
   R12        2.07197  -0.00008   0.00027  -0.00045  -0.00018   2.07179
   R13        2.07197  -0.00008   0.00027  -0.00045  -0.00018   2.07179
   R14        2.07197  -0.00008   0.00027  -0.00045  -0.00018   2.07179
   R15        2.07197  -0.00008   0.00027  -0.00045  -0.00018   2.07179
   R16        2.07197  -0.00008   0.00027  -0.00045  -0.00018   2.07179
    A1        1.91063   0.00000   0.00000   0.00000   0.00000   1.91063
    A2        1.91063   0.00000   0.00000   0.00000   0.00000   1.91063
    A3        1.91063   0.00000   0.00000   0.00000   0.00000   1.91063
    A4        1.91063   0.00000   0.00000   0.00000   0.00000   1.91063
    A5        1.91063   0.00000   0.00000   0.00000   0.00000   1.91063
    A6        1.91063   0.00000   0.00000   0.00000   0.00000   1.91063
    A7        1.94948  -0.00010  -0.00042  -0.00041  -0.00083   1.94865
    A8        1.94948  -0.00010  -0.00042  -0.00041  -0.00083   1.94865
    A9        1.87024   0.00011   0.00046   0.00044   0.00089   1.87113
   A10        1.94948  -0.00010  -0.00042  -0.00041  -0.00083   1.94865
   A11        1.87024   0.00011   0.00046   0.00044   0.00089   1.87113
   A12        1.87024   0.00011   0.00046   0.00044   0.00089   1.87113
   A13        1.94948  -0.00010  -0.00042  -0.00041  -0.00083   1.94865
   A14        1.94948  -0.00010  -0.00042  -0.00041  -0.00083   1.94865
   A15        1.87024   0.00011   0.00046   0.00044   0.00089   1.87113
   A16        1.94948  -0.00010  -0.00042  -0.00041  -0.00083   1.94865
   A17        1.87024   0.00011   0.00046   0.00044   0.00089   1.87113
   A18        1.87024   0.00011   0.00046   0.00044   0.00089   1.87113
   A19        1.94948  -0.00010  -0.00042  -0.00041  -0.00083   1.94865
   A20        1.94948  -0.00010  -0.00042  -0.00041  -0.00083   1.94865
   A21        1.87024   0.00011   0.00046   0.00044   0.00089   1.87113
   A22        1.94948  -0.00010  -0.00042  -0.00041  -0.00083   1.94865
   A23        1.87024   0.00011   0.00046   0.00044   0.00089   1.87113
   A24        1.87024   0.00011   0.00046   0.00044   0.00089   1.87113
   A25        1.94948  -0.00010  -0.00042  -0.00041  -0.00083   1.94865
   A26        1.94948  -0.00010  -0.00042  -0.00041  -0.00083   1.94865
   A27        1.87024   0.00011   0.00046   0.00044   0.00089   1.87113
   A28        1.94948  -0.00010  -0.00042  -0.00041  -0.00083   1.94865
   A29        1.87024   0.00011   0.00046   0.00044   0.00089   1.87113
   A30        1.87024   0.00011   0.00046   0.00044   0.00089   1.87113
    D1        0.00000   0.00000   0.00000   0.00000   0.00000   0.00000
    D2        2.09440   0.00000   0.00000   0.00000   0.00000   2.09440
    D3       -2.09440   0.00000   0.00000   0.00000   0.00000  -2.09440
    D4        2.09440   0.00000   0.00000   0.00000   0.00000   2.09440
    D5       -2.09440   0.00000   0.00000   0.00000   0.00000  -2.09440
    D6        0.00000   0.00000   0.00000   0.00000   0.00000   0.00000
    D7       -2.09440   0.00000   0.00000   0.00000   0.00000  -2.09440
    D8        0.00000   0.00000   0.00000   0.00000   0.00000   0.00000
    D9        2.09440   0.00000   0.00000   0.00000   0.00000   2.09440
   D10        0.00000   0.00000   0.00000   0.00000   0.00000   0.00000
   D11       -2.09440   0.00000   0.00000   0.00000   0.00000  -2.09440
   D12        2.09440   0.00000   0.00000   0.00000   0.00000   2.09440
   D13        2.09440   0.00000   0.00000   0.00000   0.00000   2.09440
   D14        0.00000   0.00000   0.00000   0.00000   0.00000   0.00000
   D15       -2.09440   0.00000   0.00000   0.00000   0.00000  -2.09440
   D16       -2.09440   0.00000   0.00000   0.00000   0.00000  -2.09440
   D17        2.09440   0.00000   0.00000   0.00000   0.00000   2.09440
   D18        0.00000   0.00000   0.00000   0.00000   0.00000   0.00000
   D19        0.00000   0.00000   0.00000   0.00000   0.00000   0.00000
   D20        2.09440   0.00000   0.00000   0.00000   0.00000   2.09440
   D21       -2.09440   0.00000   0.00000   0.00000   0.00000  -2.09440
   D22        2.09440   0.00000   0.00000   0.00000   0.00000   2.09440
   D23       -2.09440   0.00000   0.00000   0.00000   0.00000  -2.09440
   D24        0.00000   0.00000   0.00000   0.00000   0.00000   0.00000
   D25       -2.09440   0.00000   0.00000   0.00000   0.00000  -2.09440
   D26        0.00000   0.00000   0.00000   0.00000   0.00000   0.00000
   D27        2.09440   0.00000   0.00000   0.00000   0.00000   2.09440
   D28        0.00000   0.00000   0.00000   0.00000   0.00000   0.00000
   D29       -2.09440   0.00000   0.00000   0.00000   0.00000  -2.09440
   D30        2.09440   0.00000   0.00000   0.00000   0.00000   2.09440
   D31        2.09440   0.00000   0.00000   0.00000   0.00000   2.09440
   D32        0.00000   0.00000   0.00000   0.00000   0.00000   0.00000
   D33       -2.09440   0.00000   0.00000   0.00000   0.00000  -2.09440
   D34       -2.09440   0.00000   0.00000   0.00000   0.00000  -2.09440
   D35        2.09440   0.00000   0.00000   0.00000   0.00000   2.09440
   D36        0.00000   0.00000   0.00000   0.00000   0.00000   0.00000
         Item               Value     Threshold  Converged?
 Maximum Force            0.000153     0.000450     YES
 RMS     Force            0.000071     0.000300     YES
 Maximum Displacement     0.001187     0.001800     YES
 RMS     Displacement     0.000367     0.001200     YES
 Optimization completed.
    -- Stationary point found.
                         ----------------------------
                         !   Optimized Parameters   !
                         ! (Angstroms and Degrees)  !
 ------------------------                            -------------------------
 ! Name  Definition              Value          Derivative Info.             !
 -----------------------------------------------------------------------------
 ! R1    R(2,1)                  1.91           -DE/DX =    0.0002           !
 ! R2    R(3,2)                  1.91           -DE/DX =    0.0002           !
 ! R3    R(4,2)                  1.91           -DE/DX =    0.0002           !
 ! R4    R(5,2)                  1.91           -DE/DX =    0.0002           !
 ! R5    R(6,1)                  1.0964         -DE/DX =   -0.0001           !
 ! R6    R(7,1)                  1.0964         -DE/DX =   -0.0001           !
 ! R7    R(8,1)                  1.0964         -DE/DX =   -0.0001           !
 ! R8    R(9,3)                  1.0964         -DE/DX =   -0.0001           !
 ! R9    R(10,3)                 1.0964         -DE/DX =   -0.0001           !
 ! R10   R(11,3)                 1.0964         -DE/DX =   -0.0001           !
 ! R11   R(12,4)                 1.0964         -DE/DX =   -0.0001           !
 ! R12   R(13,4)                 1.0964         -DE/DX =   -0.0001           !
 ! R13   R(14,4)                 1.0964         -DE/DX =   -0.0001           !
 ! R14   R(15,5)                 1.0964         -DE/DX =   -0.0001           !
 ! R15   R(16,5)                 1.0964         -DE/DX =   -0.0001           !
 ! R16   R(17,5)                 1.0964         -DE/DX =   -0.0001           !
 ! A1    A(1,2,3)              109.4712         -DE/DX =    0.               !
 ! A2    A(1,2,4)              109.4712         -DE/DX =    0.               !
 ! A3    A(3,2,4)              109.4712         -DE/DX =    0.               !
 ! A4    A(1,2,5)              109.4712         -DE/DX =    0.               !
 ! A5    A(3,2,5)              109.4712         -DE/DX =    0.               !
 ! A6    A(4,2,5)              109.4712         -DE/DX =    0.               !
 ! A7    A(2,1,6)              111.6968         -DE/DX =   -0.0001           !
 ! A8    A(2,1,7)              111.6968         -DE/DX =   -0.0001           !
 ! A9    A(6,1,7)              107.1569         -DE/DX =    0.0001           !
 ! A10   A(2,1,8)              111.6968         -DE/DX =   -0.0001           !
 ! A11   A(6,1,8)              107.1569         -DE/DX =    0.0001           !
 ! A12   A(7,1,8)              107.1569         -DE/DX =    0.0001           !
 ! A13   A(2,3,9)              111.6968         -DE/DX =   -0.0001           !
 ! A14   A(2,3,10)             111.6968         -DE/DX =   -0.0001           !
 ! A15   A(9,3,10)             107.1569         -DE/DX =    0.0001           !
 ! A16   A(2,3,11)             111.6968         -DE/DX =   -0.0001           !
 ! A17   A(9,3,11)             107.1569         -DE/DX =    0.0001           !
 ! A18   A(10,3,11)            107.1569         -DE/DX =    0.0001           !
 ! A19   A(2,4,12)             111.6968         -DE/DX =   -0.0001           !
 ! A20   A(2,4,13)             111.6968         -DE/DX =   -0.0001           !
 ! A21   A(12,4,13)            107.1569         -DE/DX =    0.0001           !
 ! A22   A(2,4,14)             111.6968         -DE/DX =   -0.0001           !
 ! A23   A(12,4,14)            107.1569         -DE/DX =    0.0001           !
 ! A24   A(13,4,14)            107.1569         -DE/DX =    0.0001           !
 ! A25   A(2,5,15)             111.6968         -DE/DX =   -0.0001           !
 ! A26   A(2,5,16)             111.6968         -DE/DX =   -0.0001           !
 ! A27   A(15,5,16)            107.1569         -DE/DX =    0.0001           !
 ! A28   A(2,5,17)             111.6968         -DE/DX =   -0.0001           !
 ! A29   A(15,5,17)            107.1569         -DE/DX =    0.0001           !
 ! A30   A(16,5,17)            107.1569         -DE/DX =    0.0001           !
 ! D1    D(3,2,1,6)              0.             -DE/DX =    0.               !
 ! D2    D(3,2,1,7)            120.             -DE/DX =    0.               !
 ! D3    D(3,2,1,8)           -120.             -DE/DX =    0.               !
 ! D4    D(4,2,1,6)            120.             -DE/DX =    0.               !
 ! D5    D(4,2,1,7)           -120.             -DE/DX =    0.               !
 ! D6    D(4,2,1,8)              0.             -DE/DX =    0.               !
 ! D7    D(5,2,1,6)           -120.             -DE/DX =    0.               !
 ! D8    D(5,2,1,7)              0.             -DE/DX =    0.               !
 ! D9    D(5,2,1,8)            120.             -DE/DX =    0.               !
 ! D10   D(9,3,2,1)              0.             -DE/DX =    0.               !
 ! D11   D(9,3,2,4)           -120.             -DE/DX =    0.               !
 ! D12   D(9,3,2,5)            120.             -DE/DX =    0.               !
 ! D13   D(10,3,2,1)           120.             -DE/DX =    0.               !
 ! D14   D(10,3,2,4)             0.             -DE/DX =    0.               !
 ! D15   D(10,3,2,5)          -120.             -DE/DX =    0.               !
 ! D16   D(11,3,2,1)          -120.             -DE/DX =    0.               !
 ! D17   D(11,3,2,4)           120.             -DE/DX =    0.               !
 ! D18   D(11,3,2,5)             0.             -DE/DX =    0.               !
 ! D19   D(12,4,2,1)             0.             -DE/DX =    0.               !
 ! D20   D(12,4,2,3)           120.             -DE/DX =    0.               !
 ! D21   D(12,4,2,5)          -120.             -DE/DX =    0.               !
 ! D22   D(13,4,2,1)           120.             -DE/DX =    0.               !
 ! D23   D(13,4,2,3)          -120.             -DE/DX =    0.               !
 ! D24   D(13,4,2,5)             0.             -DE/DX =    0.               !
 ! D25   D(14,4,2,1)          -120.             -DE/DX =    0.               !
 ! D26   D(14,4,2,3)             0.             -DE/DX =    0.               !
 ! D27   D(14,4,2,5)           120.             -DE/DX =    0.               !
 ! D28   D(15,5,2,1)             0.             -DE/DX =    0.               !
 ! D29   D(15,5,2,3)          -120.             -DE/DX =    0.               !
 ! D30   D(15,5,2,4)           120.             -DE/DX =    0.               !
 ! D31   D(16,5,2,1)           120.             -DE/DX =    0.               !
 ! D32   D(16,5,2,3)             0.             -DE/DX =    0.               !
 ! D33   D(16,5,2,4)          -120.             -DE/DX =    0.               !
 ! D34   D(17,5,2,1)          -120.             -DE/DX =    0.               !
 ! D35   D(17,5,2,3)           120.             -DE/DX =    0.               !
 ! D36   D(17,5,2,4)             0.             -DE/DX =    0.               !
 -----------------------------------------------------------------------------
 GradGradGradGradGradGradGradGradGradGradGradGradGradGradGradGradGradGrad

 Framework group  TD[O(Si),4C3(C),6SGD(H2)]
 Deg. of freedom    3
                   Standard orientation:
 ----------------------------------------------------------
 Center     Atomic              Coordinates (Angstroms)
 Number     Number             X           Y           Z
 ----------------------------------------------------------
    1          6          -1.102751    1.102751    1.102751
    2         14           0.000000    0.000000    0.000000
    3          6           1.102751   -1.102751    1.102751
    4          6          -1.102751   -1.102751   -1.102751
    5          6           1.102751    1.102751   -1.102751
    6          1          -0.920872    0.920872    2.168593
    7          1          -0.920872    2.168593    0.920872
    8          1          -2.168593    0.920872    0.920872
    9          1           0.920872   -0.920872    2.168593
   10          1           0.920872   -2.168593    0.920872
   11          1           2.168593   -0.920872    0.920872
   12          1          -2.168593   -0.920872   -0.920872
   13          1          -0.920872   -0.920872   -2.168593
   14          1          -0.920872   -2.168593   -0.920872
   15          1           0.920872    2.168593   -0.920872
   16          1           2.168593    0.920872   -0.920872
   17          1           0.920872    0.920872   -2.168593
 ----------------------------------------------------------
 Rotational constants (GHZ):      3.0022607      3.0022607      3.0022607
 Isotopes: C-12,Si-28,C-12,C-12,C-12,H-1,H-1,H-1,H-1,H-1,H-1,H-1,H-1,H-1,H-1,H-1,
 H-1
   103 basis functions      212 primitive gaussians
    25 alpha electrons       25 beta electrons
       nuclear repulsion energy       242.8493348054 Hartrees.

 **********************************************************************

            Population analysis using the SCF density.

 **********************************************************************

 Orbital Symmetries:
       Occupied  (A1) (T2) (T2) (T2) (A1) (A1) (T2) (T2) (T2) (A1)
                 (T2) (T2) (T2) (A1) (T2) (T2) (T2) (E) (E) (T1)
                 (T1) (T1) (T2) (T2) (T2)
       Virtual   (T2) (T2) (T2) (A1) (T2) (T2) (T2) (E) (E) (A1)
                 (T1) (T1) (T1) (T2) (T2) (T2) (A1) (T2) (T2) (T2)
                 (E) (E) (T2) (T2) (T2) (A1) (T1) (T1) (T1) (T2)
                 (T2) (T2) (E) (E) (T2) (T2) (T2) (E) (E) (T2)
                 (T2) (T2) (T1) (T1) (T1) (A1) (T2) (T2) (T2) (?A)
                 (T2) (?A) (A1) (T1) (T1) (T1) (T2) (T2) (T2) (E)
                 (E) (A1) (T2) (T2) (T2) (E) (E) (T2) (T2) (T2)
                 (T1) (T1) (T1) (A1) (A1) (T2) (T2) (T2)
 Unable to determine electronic state: an orbital has unidentified symmetry.
 Alpha  occ. eigenvalues --  -66.11567 -10.15427 -10.15427 -10.15427 -10.15427
 Alpha  occ. eigenvalues --   -5.25937  -3.61812  -3.61812  -3.61812  -0.70938
 Alpha  occ. eigenvalues --   -0.66873  -0.66873  -0.66873  -0.45158  -0.40196
 Alpha  occ. eigenvalues --   -0.40196  -0.40196  -0.39947  -0.39947  -0.36727
 Alpha  occ. eigenvalues --   -0.36727  -0.36727  -0.28771  -0.28771  -0.28771
 Alpha virt. eigenvalues --    0.07812   0.07812   0.07812   0.07870   0.12884
 Alpha virt. eigenvalues --    0.12884   0.12884   0.15446   0.15446   0.20233
 Alpha virt. eigenvalues --    0.21654   0.21654   0.21654   0.25697   0.25697
 Alpha virt. eigenvalues --    0.25697   0.36311   0.37156   0.37156   0.37156
 Alpha virt. eigenvalues --    0.45364   0.45364   0.59134   0.59134   0.59134
 Alpha virt. eigenvalues --    0.61576   0.67717   0.67717   0.67717   0.78686
 Alpha virt. eigenvalues --    0.78686   0.78686   0.81399   0.81399   0.89344
 Alpha virt. eigenvalues --    0.89344   0.89344   0.89691   0.89691   0.92844
 Alpha virt. eigenvalues --    0.92844   0.92844   0.94488   0.94488   0.94488
 Alpha virt. eigenvalues --    0.94649   1.02778   1.02778   1.02778   1.23137
 Alpha virt. eigenvalues --    1.23137   1.23137   1.41759   1.67483   1.67483
 Alpha virt. eigenvalues --    1.67483   1.77725   1.77725   1.77725   1.81486
 Alpha virt. eigenvalues --    1.81486   2.00623   2.22834   2.22834   2.22834
 Alpha virt. eigenvalues --    2.23757   2.23757   2.30359   2.30359   2.30359
 Alpha virt. eigenvalues --    2.30630   2.30630   2.30630   3.10026   4.18537
 Alpha virt. eigenvalues --    4.21660   4.21660   4.21660
     Molecular Orbital Coefficients
                          21        22        23        24        25
                           O         O         O         O         O
     EIGENVALUES --    -0.36727  -0.36727  -0.28771  -0.28771  -0.28771
   1 1   C  1S          0.00000   0.00000  -0.02216  -0.02216   0.02216
   2        2S          0.00000   0.00000   0.04163   0.04163  -0.04163
   3        2PX         0.16135   0.00000   0.10808   0.10808  -0.18689
   4        2PY         0.00000   0.16135  -0.10808  -0.18689   0.10808
   5        2PZ         0.16135  -0.16135  -0.18689  -0.10808   0.10808
   6        3S          0.00000   0.00000   0.10620   0.10620  -0.10620
   7        3PX         0.08158   0.00000   0.06850   0.06850  -0.11309
   8        3PY         0.00000   0.08158  -0.06850  -0.11309   0.06850
   9        3PZ         0.08158  -0.08158  -0.11309  -0.06850   0.06850
  10        4XX        -0.01202   0.00000   0.00262   0.00262   0.00800
  11        4YY         0.00000   0.01202   0.00262  -0.00800  -0.00262
  12        4ZZ         0.01202  -0.01202  -0.00800   0.00262  -0.00262
  13        4XY        -0.00175   0.00175  -0.00339  -0.00184   0.00184
  14        4XZ         0.00000  -0.00175  -0.00184  -0.00339   0.00184
  15        4YZ        -0.00175   0.00000   0.00184   0.00184  -0.00339
  16 2   Si 1S          0.00000   0.00000   0.00000   0.00000   0.00000
  17        2S          0.00000   0.00000   0.00000   0.00000   0.00000
  18        2PX         0.00000   0.00000   0.00000   0.00000  -0.14538
  19        2PY         0.00000   0.00000   0.00000  -0.14538   0.00000
  20        2PZ         0.00000   0.00000  -0.14538   0.00000   0.00000
  21        3S          0.00000   0.00000   0.00000   0.00000   0.00000
  22        3PX         0.00000   0.00000   0.00000   0.00000   0.34402
  23        3PY         0.00000   0.00000   0.00000   0.34402   0.00000
  24        3PZ         0.00000   0.00000   0.34402   0.00000   0.00000
  25        4S          0.00000   0.00000   0.00000   0.00000   0.00000
  26        4PX         0.00000   0.00000   0.00000   0.00000   0.04533
  27        4PY         0.00000   0.00000   0.00000   0.04533   0.00000
  28        4PZ         0.00000   0.00000   0.04533   0.00000   0.00000
  29        5XX         0.00000   0.00000   0.00000   0.00000   0.00000
  30        5YY         0.00000   0.00000   0.00000   0.00000   0.00000
  31        5ZZ         0.00000   0.00000   0.00000   0.00000   0.00000
  32        5XY         0.00000   0.00000  -0.06936   0.00000   0.00000
  33        5XZ         0.00000   0.00000   0.00000  -0.06936   0.00000
  34        5YZ         0.00000   0.00000   0.00000   0.00000  -0.06936
  35 3   C  1S          0.00000   0.00000  -0.02216   0.02216  -0.02216
  36        2S          0.00000   0.00000   0.04163  -0.04163   0.04163
  37        2PX         0.16135   0.00000  -0.10808   0.10808  -0.18689
  38        2PY         0.00000   0.16135   0.10808  -0.18689   0.10808
  39        2PZ        -0.16135   0.16135  -0.18689   0.10808  -0.10808
  40        3S          0.00000   0.00000   0.10620  -0.10620   0.10620
  41        3PX         0.08158   0.00000  -0.06850   0.06850  -0.11309
  42        3PY         0.00000   0.08158   0.06850  -0.11309   0.06850
  43        3PZ        -0.08158   0.08158  -0.11309   0.06850  -0.06850
  44        4XX         0.01202   0.00000   0.00262  -0.00262  -0.00800
  45        4YY         0.00000  -0.01202   0.00262   0.00800   0.00262
  46        4ZZ        -0.01202   0.01202  -0.00800  -0.00262   0.00262
  47        4XY         0.00175  -0.00175  -0.00339   0.00184  -0.00184
  48        4XZ         0.00000  -0.00175   0.00184  -0.00339   0.00184
  49        4YZ        -0.00175   0.00000  -0.00184   0.00184  -0.00339
  50 4   C  1S          0.00000   0.00000   0.02216   0.02216   0.02216
  51        2S          0.00000   0.00000  -0.04163  -0.04163  -0.04163
  52        2PX        -0.16135   0.00000  -0.10808  -0.10808  -0.18689
  53        2PY         0.00000  -0.16135  -0.10808  -0.18689  -0.10808
  54        2PZ         0.16135   0.16135  -0.18689  -0.10808  -0.10808
  55        3S          0.00000   0.00000  -0.10620  -0.10620  -0.10620
  56        3PX        -0.08158   0.00000  -0.06850  -0.06850  -0.11309
  57        3PY         0.00000  -0.08158  -0.06850  -0.11309  -0.06850
  58        3PZ         0.08158   0.08158  -0.11309  -0.06850  -0.06850
  59        4XX         0.01202   0.00000  -0.00262  -0.00262   0.00800
  60        4YY         0.00000   0.01202  -0.00262   0.00800  -0.00262
  61        4ZZ        -0.01202  -0.01202   0.00800  -0.00262  -0.00262
  62        4XY        -0.00175  -0.00175  -0.00339  -0.00184  -0.00184
  63        4XZ         0.00000   0.00175  -0.00184  -0.00339  -0.00184
  64        4YZ         0.00175   0.00000  -0.00184  -0.00184  -0.00339
  65 5   C  1S          0.00000   0.00000   0.02216  -0.02216  -0.02216
  66        2S          0.00000   0.00000  -0.04163   0.04163   0.04163
  67        2PX        -0.16135   0.00000   0.10808  -0.10808  -0.18689
  68        2PY         0.00000  -0.16135   0.10808  -0.18689  -0.10808
  69        2PZ        -0.16135  -0.16135  -0.18689   0.10808   0.10808
  70        3S          0.00000   0.00000  -0.10620   0.10620   0.10620
  71        3PX        -0.08158   0.00000   0.06850  -0.06850  -0.11309
  72        3PY         0.00000  -0.08158   0.06850  -0.11309  -0.06850
  73        3PZ        -0.08158  -0.08158  -0.11309   0.06850   0.06850
  74        4XX        -0.01202   0.00000  -0.00262   0.00262  -0.00800
  75        4YY         0.00000  -0.01202  -0.00262  -0.00800   0.00262
  76        4ZZ         0.01202   0.01202   0.00800   0.00262   0.00262
  77        4XY         0.00175   0.00175  -0.00339   0.00184   0.00184
  78        4XZ         0.00000   0.00175   0.00184  -0.00339  -0.00184
  79        4YZ         0.00175   0.00000   0.00184  -0.00184  -0.00339
  80 6   H  1S          0.12369  -0.12369  -0.08779  -0.01410   0.01410
  81        2S          0.10253  -0.10253  -0.09999  -0.02521   0.02521
  82 7   H  1S          0.00000   0.12369  -0.01410  -0.08779   0.01410
  83        2S          0.00000   0.10253  -0.02521  -0.09999   0.02521
  84 8   H  1S         -0.12369   0.00000  -0.01410  -0.01410   0.08779
  85        2S         -0.10253   0.00000  -0.02521  -0.02521   0.09999
  86 9   H  1S         -0.12369   0.12369  -0.08779   0.01410  -0.01410
  87        2S         -0.10253   0.10253  -0.09999   0.02521  -0.02521
  88 10  H  1S          0.00000  -0.12369  -0.01410   0.08779  -0.01410
  89        2S          0.00000  -0.10253  -0.02521   0.09999  -0.02521
  90 11  H  1S          0.12369   0.00000  -0.01410   0.01410  -0.08779
  91        2S          0.10253   0.00000  -0.02521   0.02521  -0.09999
  92 12  H  1S          0.12369   0.00000   0.01410   0.01410   0.08779
  93        2S          0.10253   0.00000   0.02521   0.02521   0.09999
  94 13  H  1S         -0.12369  -0.12369   0.08779   0.01410   0.01410
  95        2S         -0.10253  -0.10253   0.09999   0.02521   0.02521
  96 14  H  1S          0.00000   0.12369   0.01410   0.08779   0.01410
  97        2S          0.00000   0.10253   0.02521   0.09999   0.02521
  98 15  H  1S          0.00000  -0.12369   0.01410  -0.08779  -0.01410
  99        2S          0.00000  -0.10253   0.02521  -0.09999  -0.02521
 100 16  H  1S         -0.12369   0.00000   0.01410  -0.01410  -0.08779
 101        2S         -0.10253   0.00000   0.02521  -0.02521  -0.09999
 102 17  H  1S          0.12369   0.12369   0.08779  -0.01410  -0.01410
 103        2S          0.10253   0.10253   0.09999  -0.02521  -0.02521
                          26        27        28        29        30
                           V         V         V         V         V
     EIGENVALUES --     0.07812   0.07812   0.07812   0.07870   0.12884
   1 1   C  1S          0.03710   0.03710  -0.03710  -0.08317  -0.05973
   2        2S         -0.05213  -0.05213   0.05213   0.08467   0.05390
   3        2PX        -0.03174  -0.03174   0.06935  -0.01981   0.00223
   4        2PY         0.03174   0.06935  -0.03174   0.01981  -0.00223
   5        2PZ         0.06935   0.03174  -0.03174   0.01981   0.15404
   6        3S         -0.42387  -0.42387   0.42387   1.18939   1.00434
   7        3PX        -0.03068  -0.03068   0.32910  -0.04737   0.08040
   8        3PY         0.03068   0.32910  -0.03068   0.04737  -0.08040
   9        3PZ         0.32910   0.03068  -0.03068   0.04737   0.43295
  10        4XX         0.01593   0.01593   0.01844  -0.00851  -0.00899
  11        4YY         0.01593  -0.01844  -0.01593  -0.00851  -0.00899
  12        4ZZ        -0.01844   0.01593  -0.01593  -0.00851   0.00017
  13        4XY        -0.00210  -0.00135   0.00135  -0.00285   0.00103
  14        4XZ        -0.00135  -0.00210   0.00135  -0.00285  -0.00355
  15        4YZ         0.00135   0.00135  -0.00210   0.00285   0.00355
  16 2   Si 1S          0.00000   0.00000   0.00000   0.00183   0.00000
  17        2S          0.00000   0.00000   0.00000   0.05671   0.00000
  18        2PX         0.00000   0.00000  -0.11162   0.00000   0.00000
  19        2PY         0.00000  -0.11162   0.00000   0.00000   0.00000
  20        2PZ        -0.11162   0.00000   0.00000   0.00000  -0.00117
  21        3S          0.00000   0.00000   0.00000   0.29301   0.00000
  22        3PX         0.00000   0.00000   0.31861   0.00000   0.00000
  23        3PY         0.00000   0.31861   0.00000   0.00000   0.00000
  24        3PZ         0.31861   0.00000   0.00000   0.00000   0.02630
  25        4S          0.00000   0.00000   0.00000  -1.11713   0.00000
  26        4PX         0.00000   0.00000   1.09047   0.00000   0.00000
  27        4PY         0.00000   1.09047   0.00000   0.00000   0.00000
  28        4PZ         1.09047   0.00000   0.00000   0.00000  -0.76099
  29        5XX         0.00000   0.00000   0.00000  -0.02191   0.00000
  30        5YY         0.00000   0.00000   0.00000  -0.02191   0.00000
  31        5ZZ         0.00000   0.00000   0.00000  -0.02191   0.00000
  32        5XY         0.12147   0.00000   0.00000   0.00000   0.01835
  33        5XZ         0.00000   0.12147   0.00000   0.00000   0.00000
  34        5YZ         0.00000   0.00000   0.12147   0.00000   0.00000
  35 3   C  1S          0.03710  -0.03710   0.03710  -0.08317  -0.05973
  36        2S         -0.05213   0.05213  -0.05213   0.08467   0.05390
  37        2PX         0.03174  -0.03174   0.06935   0.01981  -0.00223
  38        2PY        -0.03174   0.06935  -0.03174  -0.01981   0.00223
  39        2PZ         0.06935  -0.03174   0.03174   0.01981   0.15404
  40        3S         -0.42387   0.42387  -0.42387   1.18939   1.00434
  41        3PX         0.03068  -0.03068   0.32910   0.04737  -0.08040
  42        3PY        -0.03068   0.32910  -0.03068  -0.04737   0.08040
  43        3PZ         0.32910  -0.03068   0.03068   0.04737   0.43295
  44        4XX         0.01593  -0.01593  -0.01844  -0.00851  -0.00899
  45        4YY         0.01593   0.01844   0.01593  -0.00851  -0.00899
  46        4ZZ        -0.01844  -0.01593   0.01593  -0.00851   0.00017
  47        4XY        -0.00210   0.00135  -0.00135  -0.00285   0.00103
  48        4XZ         0.00135  -0.00210   0.00135   0.00285   0.00355
  49        4YZ        -0.00135   0.00135  -0.00210  -0.00285  -0.00355
  50 4   C  1S         -0.03710  -0.03710  -0.03710  -0.08317   0.05973
  51        2S          0.05213   0.05213   0.05213   0.08467  -0.05390
  52        2PX         0.03174   0.03174   0.06935  -0.01981  -0.00223
  53        2PY         0.03174   0.06935   0.03174  -0.01981  -0.00223
  54        2PZ         0.06935   0.03174   0.03174  -0.01981   0.15404
  55        3S          0.42387   0.42387   0.42387   1.18939  -1.00434
  56        3PX         0.03068   0.03068   0.32910  -0.04737  -0.08040
  57        3PY         0.03068   0.32910   0.03068  -0.04737  -0.08040
  58        3PZ         0.32910   0.03068   0.03068  -0.04737   0.43295
  59        4XX        -0.01593  -0.01593   0.01844  -0.00851   0.00899
  60        4YY        -0.01593   0.01844  -0.01593  -0.00851   0.00899
  61        4ZZ         0.01844  -0.01593  -0.01593  -0.00851  -0.00017
  62        4XY        -0.00210  -0.00135  -0.00135   0.00285   0.00103
  63        4XZ        -0.00135  -0.00210  -0.00135   0.00285  -0.00355
  64        4YZ        -0.00135  -0.00135  -0.00210   0.00285  -0.00355
  65 5   C  1S         -0.03710   0.03710   0.03710  -0.08317   0.05973
  66        2S          0.05213  -0.05213  -0.05213   0.08467  -0.05390
  67        2PX        -0.03174   0.03174   0.06935   0.01981   0.00223
  68        2PY        -0.03174   0.06935   0.03174   0.01981   0.00223
  69        2PZ         0.06935  -0.03174  -0.03174  -0.01981   0.15404
  70        3S          0.42387  -0.42387  -0.42387   1.18939  -1.00434
  71        3PX        -0.03068   0.03068   0.32910   0.04737   0.08040
  72        3PY        -0.03068   0.32910   0.03068   0.04737   0.08040
  73        3PZ         0.32910  -0.03068  -0.03068  -0.04737   0.43295
  74        4XX        -0.01593   0.01593  -0.01844  -0.00851   0.00899
  75        4YY        -0.01593  -0.01844   0.01593  -0.00851   0.00899
  76        4ZZ         0.01844   0.01593   0.01593  -0.00851  -0.00017
  77        4XY        -0.00210   0.00135   0.00135   0.00285   0.00103
  78        4XZ         0.00135  -0.00210  -0.00135  -0.00285   0.00355
  79        4YZ         0.00135  -0.00135  -0.00210  -0.00285   0.00355
  80 6   H  1S         -0.07971   0.04823  -0.04823  -0.01206  -0.00779
  81        2S         -0.50078   0.23879  -0.23879  -0.42510  -0.77948
  82 7   H  1S          0.04823  -0.07971  -0.04823  -0.01206  -0.01447
  83        2S          0.23879  -0.50078  -0.23879  -0.42510  -0.18381
  84 8   H  1S          0.04823   0.04823   0.07971  -0.01206  -0.01447
  85        2S          0.23879   0.23879   0.50078  -0.42510  -0.18381
  86 9   H  1S         -0.07971  -0.04823   0.04823  -0.01206  -0.00779
  87        2S         -0.50078  -0.23879   0.23879  -0.42510  -0.77948
  88 10  H  1S          0.04823   0.07971   0.04823  -0.01206  -0.01447
  89        2S          0.23879   0.50078   0.23879  -0.42510  -0.18381
  90 11  H  1S          0.04823  -0.04823  -0.07971  -0.01206  -0.01447
  91        2S          0.23879  -0.23879  -0.50078  -0.42510  -0.18381
  92 12  H  1S         -0.04823  -0.04823   0.07971  -0.01206   0.01447
  93        2S         -0.23879  -0.23879   0.50078  -0.42510   0.18381
  94 13  H  1S          0.07971  -0.04823  -0.04823  -0.01206   0.00779
  95        2S          0.50078  -0.23879  -0.23879  -0.42510   0.77948
  96 14  H  1S         -0.04823   0.07971  -0.04823  -0.01206   0.01447
  97        2S         -0.23879   0.50078  -0.23879  -0.42510   0.18381
  98 15  H  1S         -0.04823  -0.07971   0.04823  -0.01206   0.01447
  99        2S         -0.23879  -0.50078   0.23879  -0.42510   0.18381
 100 16  H  1S         -0.04823   0.04823  -0.07971  -0.01206   0.01447
 101        2S         -0.23879   0.23879  -0.50078  -0.42510   0.18381
 102 17  H  1S          0.07971   0.04823   0.04823  -0.01206   0.00779
 103        2S          0.50078   0.23879   0.23879  -0.42510   0.77948
          Condensed to atoms (all electrons):
 Total atomic charges:
              1
  1  C   -0.674132
  2  Si   0.799679
  3  C   -0.674132
  4  C   -0.674132
  5  C   -0.674132
  6  H    0.158071
  7  H    0.158071
  8  H    0.158071
  9  H    0.158071
 10  H    0.158071
 11  H    0.158071
 12  H    0.158071
 13  H    0.158071
 14  H    0.158071
 15  H    0.158071
 16  H    0.158071
 17  H    0.158071
 Sum of Mulliken charges=   0.00000
 Atomic charges with hydrogens summed into heavy atoms:
              1
  1  C   -0.199920
  2  Si   0.799679
  3  C   -0.199920
  4  C   -0.199920
  5  C   -0.199920
  6  H    0.000000
  7  H    0.000000
  8  H    0.000000
  9  H    0.000000
 10  H    0.000000
 11  H    0.000000
 12  H    0.000000
 13  H    0.000000
 14  H    0.000000
 15  H    0.000000
 16  H    0.000000
 17  H    0.000000
 Sum of Mulliken charges=   0.00000
 Electronic spatial extent (au):  <R**2>=   679.6634
 Charge=     0.0000 electrons
 Dipole moment (Debye):
    X=     0.0000    Y=     0.0000    Z=     0.0000  Tot=     0.0000
 **************************Gaussian NBO Version 3.1**************************
             N A T U R A L   A T O M I C   O R B I T A L   A N D
          N A T U R A L   B O N D   O R B I T A L   A N A L Y S I S
 **************************Gaussian NBO Version 3.1**************************
       /RESON  / : Allow strongly delocalized NBO set
       /DIPOLE / : Print NBO/NLMO dipole moment analysis

 Analyzing the SCF density

 Job title: TMS, Opt + NMR                                                  

 Storage needed:     32814 in NPA,     43053 in NBO,     64046 in NLMO (   4000000 available)


 NATURAL POPULATIONS:  Natural atomic orbital occupancies

  NAO Atom No lang   Type(AO)    Occupancy      Energy    
 ---------------------------------------------------------
   1    C  1  s      Cor( 1s)     1.99952     -10.03279
   2    C  1  s      Val( 2s)     1.22923      -0.32269
   3    C  1  s      Ryd( 3s)     0.00137       1.24526
   4    C  1  s      Ryd( 4s)     0.00001       4.14149
   5    C  1  px     Val( 2p)     1.31826      -0.10664
   6    C  1  px     Ryd( 3p)     0.00144       0.69333
   7    C  1  py     Val( 2p)     1.31826      -0.10664
   8    C  1  py     Ryd( 3p)     0.00144       0.69333
   9    C  1  pz     Val( 2p)     1.31826      -0.10664
  10    C  1  pz     Ryd( 3p)     0.00144       0.69333
  11    C  1  dxy    Ryd( 3d)     0.00047       1.85482
  12    C  1  dxz    Ryd( 3d)     0.00047       1.85482
  13    C  1  dyz    Ryd( 3d)     0.00047       1.85482
  14    C  1  dx2y2  Ryd( 3d)     0.00129       2.15489
  15    C  1  dz2    Ryd( 3d)     0.00129       2.15489

  16   Si  2  s      Cor( 1s)     2.00000     -65.34292
  17   Si  2  s      Cor( 2s)     1.99896      -5.90582
  18   Si  2  s      Val( 3s)     0.79566      -0.13385
  19   Si  2  s      Ryd( 4s)     0.00083       0.41543
  20   Si  2  s      Ryd( 5s)     0.00000       3.03284
  21   Si  2  px     Cor( 2p)     1.99982      -3.61038
  22   Si  2  px     Val( 3p)     0.45824       0.09539
  23   Si  2  px     Ryd( 4p)     0.00055       0.36147
  24   Si  2  py     Cor( 2p)     1.99982      -3.61038
  25   Si  2  py     Val( 3p)     0.45824       0.09539
  26   Si  2  py     Ryd( 4p)     0.00055       0.36147
  27   Si  2  pz     Cor( 2p)     1.99982      -3.61038
  28   Si  2  pz     Val( 3p)     0.45824       0.09539
  29   Si  2  pz     Ryd( 4p)     0.00055       0.36147
  30   Si  2  dxy    Ryd( 3d)     0.00729       1.02458
  31   Si  2  dxz    Ryd( 3d)     0.00729       1.02458
  32   Si  2  dyz    Ryd( 3d)     0.00729       1.02458
  33   Si  2  dx2y2  Ryd( 3d)     0.00225       0.84588
  34   Si  2  dz2    Ryd( 3d)     0.00225       0.84588

  35    C  3  s      Cor( 1s)     1.99952     -10.03279
  36    C  3  s      Val( 2s)     1.22923      -0.32269
  37    C  3  s      Ryd( 3s)     0.00137       1.24526
  38    C  3  s      Ryd( 4s)     0.00001       4.14149
  39    C  3  px     Val( 2p)     1.31826      -0.10664
  40    C  3  px     Ryd( 3p)     0.00144       0.69333
  41    C  3  py     Val( 2p)     1.31826      -0.10664
  42    C  3  py     Ryd( 3p)     0.00144       0.69333
  43    C  3  pz     Val( 2p)     1.31826      -0.10664
  44    C  3  pz     Ryd( 3p)     0.00144       0.69333
  45    C  3  dxy    Ryd( 3d)     0.00047       1.85482
  46    C  3  dxz    Ryd( 3d)     0.00047       1.85482
  47    C  3  dyz    Ryd( 3d)     0.00047       1.85482
  48    C  3  dx2y2  Ryd( 3d)     0.00129       2.15489
  49    C  3  dz2    Ryd( 3d)     0.00129       2.15489

  50    C  4  s      Cor( 1s)     1.99952     -10.03279
  51    C  4  s      Val( 2s)     1.22923      -0.32269
  52    C  4  s      Ryd( 3s)     0.00137       1.24526
  53    C  4  s      Ryd( 4s)     0.00001       4.14149
  54    C  4  px     Val( 2p)     1.31826      -0.10664
  55    C  4  px     Ryd( 3p)     0.00144       0.69333
  56    C  4  py     Val( 2p)     1.31826      -0.10664
  57    C  4  py     Ryd( 3p)     0.00144       0.69333
  58    C  4  pz     Val( 2p)     1.31826      -0.10664
  59    C  4  pz     Ryd( 3p)     0.00144       0.69333
  60    C  4  dxy    Ryd( 3d)     0.00047       1.85482
  61    C  4  dxz    Ryd( 3d)     0.00047       1.85482
  62    C  4  dyz    Ryd( 3d)     0.00047       1.85482
  63    C  4  dx2y2  Ryd( 3d)     0.00129       2.15489
  64    C  4  dz2    Ryd( 3d)     0.00129       2.15489

  65    C  5  s      Cor( 1s)     1.99952     -10.03279
  66    C  5  s      Val( 2s)     1.22923      -0.32269
  67    C  5  s      Ryd( 3s)     0.00137       1.24526
  68    C  5  s      Ryd( 4s)     0.00001       4.14149
  69    C  5  px     Val( 2p)     1.31826      -0.10664
  70    C  5  px     Ryd( 3p)     0.00144       0.69333
  71    C  5  py     Val( 2p)     1.31826      -0.10664
  72    C  5  py     Ryd( 3p)     0.00144       0.69333
  73    C  5  pz     Val( 2p)     1.31826      -0.10664
  74    C  5  pz     Ryd( 3p)     0.00144       0.69333
  75    C  5  dxy    Ryd( 3d)     0.00047       1.85482
  76    C  5  dxz    Ryd( 3d)     0.00047       1.85482
  77    C  5  dyz    Ryd( 3d)     0.00047       1.85482
  78    C  5  dx2y2  Ryd( 3d)     0.00129       2.15489
  79    C  5  dz2    Ryd( 3d)     0.00129       2.15489

  80    H  6  s      Val( 1s)     0.75170       0.09768
  81    H  6  s      Ryd( 2s)     0.00075       0.69923

  82    H  7  s      Val( 1s)     0.75170       0.09768
  83    H  7  s      Ryd( 2s)     0.00075       0.69923

  84    H  8  s      Val( 1s)     0.75170       0.09768
  85    H  8  s      Ryd( 2s)     0.00075       0.69923

  86    H  9  s      Val( 1s)     0.75170       0.09768
  87    H  9  s      Ryd( 2s)     0.00075       0.69923

  88    H 10  s      Val( 1s)     0.75170       0.09768
  89    H 10  s      Ryd( 2s)     0.00075       0.69923

  90    H 11  s      Val( 1s)     0.75170       0.09768
[...]
  23. (2.00000)  99.9729%  CR ( 1) C 3           
                           99.975%  C 3 s(100.00%)p 0.00(  0.00%)d 0.00(  0.00%)
  24. (2.00000)  99.9729%  CR ( 1) C 4           
                           99.975%  C 4 s(100.00%)p 0.00(  0.00%)d 0.00(  0.00%)
  25. (2.00000)  99.9729%  CR ( 1) C 5           
                           99.975%  C 5 s(100.00%)p 0.00(  0.00%)d 0.00(  0.00%)

 Individual LMO bond orders greater than 0.002 in magnitude,
 with the overlap between the hybrids in the NLMO given:

 Atom I / Atom J / NLMO / Bond Order / Hybrid Overlap /
    1       2       1     0.5625589       0.8039654
    1       2       2     0.0040158       0.3077153
    1       2       3     0.0040167       0.3076991
    1       2       4     0.0040172       0.3077060
    1       6       2     0.7972338       0.8158100
    1       7       3     0.7972340       0.8158141
    1       8       4     0.7972332       0.8158144
    2       3       5     0.5625589       0.8039654
    2       3       8     0.0040158       0.3077153
    2       3       9     0.0040167       0.3076992
    2       3      10     0.0040172       0.3077060
    2       4       6     0.5625589       0.8039654
    2       4      11     0.0040172       0.3077060
    2       4      12     0.0040158       0.3077153
    2       4      13     0.0040167       0.3076992
    2       5       7     0.5625589       0.8039654
    2       5      14     0.0040167       0.3076992
    2       5      15     0.0040172       0.3077060
    2       5      16     0.0040158       0.3077153
    2       6       2     0.0040158       0.1457320
    2       7       3     0.0040167       0.1457118
    2       8       4     0.0040172       0.1457235
    2       9       8     0.0040158       0.1457320
    2      10       9     0.0040167       0.1457118
    2      11      10     0.0040172       0.1457236
    2      12      11     0.0040172       0.1457235
    2      13      12     0.0040158       0.1457319
    2      14      13     0.0040167       0.1457118
    2      15      14     0.0040167       0.1457118
    2      16      15     0.0040172       0.1457235
    2      17      16     0.0040158       0.1457319
    3       9       8     0.7972338       0.8158100
    3      10       9     0.7972340       0.8158141
    3      11      10     0.7972332       0.8158144
    4      12      11     0.7972333       0.8158144
    4      13      12     0.7972338       0.8158100
    4      14      13     0.7972340       0.8158141
    5      15      14     0.7972341       0.8158141
    5      16      15     0.7972333       0.8158144
    5      17      16     0.7972338       0.8158100


 Atom-Atom Net Linear NLMO/NPA Bond Orders:                                    

     Atom    1       2       3       4       5       6       7       8       9
     ---- ------  ------  ------  ------  ------  ------  ------  ------  ------
   1.  C  0.0000  0.5747  0.0030  0.0030  0.0030  0.7971  0.7971  0.7971  0.0001
   2. Si  0.5747  0.0000  0.5747  0.5747  0.5747  0.0033  0.0033  0.0033  0.0033
   3.  C  0.0030  0.5747  0.0000  0.0030  0.0030  0.0001 -0.0005 -0.0005  0.7971
   4.  C  0.0030  0.5747  0.0030  0.0000  0.0030 -0.0005 -0.0005  0.0001 -0.0005
   5.  C  0.0030  0.5747  0.0030  0.0030  0.0000 -0.0005  0.0001 -0.0005 -0.0005
   6.  H  0.7971  0.0033  0.0001 -0.0005 -0.0005  0.0000  0.0002  0.0002 -0.0008
   7.  H  0.7971  0.0033 -0.0005 -0.0005  0.0001  0.0002  0.0000  0.0002  0.0004
   8.  H  0.7971  0.0033 -0.0005  0.0001 -0.0005  0.0002  0.0002  0.0000  0.0004
   9.  H  0.0001  0.0033  0.7971 -0.0005 -0.0005 -0.0008  0.0004  0.0004  0.0000
  10.  H -0.0005  0.0033  0.7971  0.0001 -0.0005  0.0004 -0.0009 -0.0005  0.0002
  11.  H -0.0005  0.0033  0.7971 -0.0005  0.0001  0.0004 -0.0005 -0.0009  0.0002
  12.  H  0.0001  0.0033 -0.0005  0.7971 -0.0005  0.0004  0.0004 -0.0008 -0.0005
  13.  H -0.0005  0.0033 -0.0005  0.7971  0.0001 -0.0009 -0.0005  0.0004 -0.0009
  14.  H -0.0005  0.0033  0.0001  0.7971 -0.0005 -0.0005 -0.0009  0.0004  0.0004
  15.  H  0.0001  0.0033 -0.0005 -0.0005  0.7971  0.0004 -0.0008  0.0004 -0.0005
  16.  H -0.0005  0.0033  0.0001 -0.0005  0.7971 -0.0005  0.0004 -0.0009  0.0004
  17.  H -0.0005  0.0033 -0.0005  0.0001  0.7971 -0.0009  0.0004 -0.0005 -0.0009

     Atom   10      11      12      13      14      15      16      17
     ---- ------  ------  ------  ------  ------  ------  ------  ------
   1.  C -0.0005 -0.0005  0.0001 -0.0005 -0.0005  0.0001 -0.0005 -0.0005
   2. Si  0.0033  0.0033  0.0033  0.0033  0.0033  0.0033  0.0033  0.0033
   3.  C  0.7971  0.7971 -0.0005 -0.0005  0.0001 -0.0005  0.0001 -0.0005
   4.  C  0.0001 -0.0005  0.7971  0.7971  0.7971 -0.0005 -0.0005  0.0001
   5.  C -0.0005  0.0001 -0.0005  0.0001 -0.0005  0.7971  0.7971  0.7971
   6.  H  0.0004  0.0004  0.0004 -0.0009 -0.0005  0.0004 -0.0005 -0.0009
   7.  H -0.0009 -0.0005  0.0004 -0.0005 -0.0009 -0.0008  0.0004  0.0004
   8.  H -0.0005 -0.0009 -0.0008  0.0004  0.0004  0.0004 -0.0009 -0.0005
   9.  H  0.0002  0.0002 -0.0005 -0.0009  0.0004 -0.0005  0.0004 -0.0009
  10.  H  0.0000  0.0002  0.0004  0.0004 -0.0008 -0.0009  0.0004 -0.0005
  11.  H  0.0002  0.0000 -0.0009 -0.0005  0.0004  0.0004 -0.0008  0.0004
  12.  H  0.0004 -0.0009  0.0000  0.0002  0.0002 -0.0005 -0.0009  0.0004
  13.  H  0.0004 -0.0005  0.0002  0.0000  0.0002  0.0004  0.0004 -0.0008
  14.  H -0.0008  0.0004  0.0002  0.0002  0.0000 -0.0009 -0.0005  0.0004
  15.  H -0.0009  0.0004 -0.0005  0.0004 -0.0009  0.0000  0.0002  0.0002
  16.  H  0.0004 -0.0008 -0.0009  0.0004 -0.0005  0.0002  0.0000  0.0002
  17.  H -0.0005  0.0004  0.0004 -0.0008  0.0004  0.0002  0.0002  0.0000


 Linear NLMO/NPA Bond Orders, Totals by Atom:                                  

     Atom    1
     ---- ------
   1.  C  2.9722
   2. Si  2.3381
   3.  C  2.9722
   4.  C  2.9722
   5.  C  2.9722
   6.  H  0.7977
   7.  H  0.7977
   8.  H  0.7978
   9.  H  0.7977
  10.  H  0.7977
  11.  H  0.7978
  12.  H  0.7978
  13.  H  0.7977
  14.  H  0.7977
  15.  H  0.7977
  16.  H  0.7978
  17.  H  0.7977


 Dipole moment analysis:

 [Print threshold: Net dipole > 0.02 Debye]

                                 NLMO bond dipole            NBO bond dipole
                             -------------------------  ------------------------
          Orbital              x     y     z   Total      x     y     z   Total
 ===============================================================================
   1. BD ( 1) C 1-Si 2        1.38 -1.38 -1.38  2.39     1.43 -1.43 -1.43  2.48
                                             deloc 204: -0.07  0.07 -0.10  0.14
                                             deloc 205:  0.10  0.07  0.07  0.14
                                             deloc 206: -0.07 -0.10  0.07  0.14
                                             deloc 201:  0.02 -0.02  0.04  0.04
                                             deloc 202:  0.02  0.04 -0.02  0.04
                                             deloc 203: -0.04 -0.02 -0.02  0.04

   2. BD ( 1) C 1- H 6       -0.35  0.35 -1.69  1.76    -0.29  0.29 -1.73  1.78
                                             deloc 204: -0.02  0.02  0.03  0.04
                                             deloc 200:  0.02 -0.02 -0.02  0.04
                                             deloc 202:  0.01  0.03  0.00  0.03
                                             deloc 203: -0.03 -0.01  0.00  0.03
                                             deloc 205:  0.00  0.02  0.02  0.02
                                             deloc 206: -0.02  0.00  0.02  0.02

   3. BD ( 1) C 1- H 7       -0.35 -1.69  0.35  1.76    -0.29 -1.73  0.29  1.78
                                             deloc 206: -0.02  0.03  0.02  0.04
                                             deloc 200:  0.02 -0.02 -0.02  0.04
                                             deloc 201:  0.01  0.00  0.03  0.03
                                             deloc 203: -0.03  0.00 -0.01  0.03
                                             deloc 204: -0.02  0.02  0.00  0.02
                                             deloc 205:  0.00  0.02  0.02  0.02

   4. BD ( 1) C 1- H 8        1.69  0.35  0.35  1.76     1.73  0.29  0.29  1.78
                                             deloc 205: -0.03  0.02  0.02  0.04
                                             deloc 200:  0.02 -0.02 -0.02  0.04
                                             deloc 201:  0.00 -0.01  0.03  0.03
                                             deloc 202:  0.00  0.03 -0.01  0.03
                                             deloc 204: -0.02  0.02  0.00  0.02
                                             deloc 206: -0.02  0.00  0.02  0.02

   5. BD ( 1)Si 2- C 3       -1.38  1.38 -1.38  2.39    -1.43  1.43 -1.43  2.48
                                             deloc 200:  0.07 -0.07 -0.10  0.14
                                             deloc 205:  0.07  0.10  0.07  0.14
                                             deloc 206: -0.10 -0.07  0.07  0.14
                                             deloc 207: -0.02  0.02  0.04  0.04
                                             deloc 208: -0.02 -0.04 -0.02  0.04
                                             deloc 209:  0.04  0.02 -0.02  0.04

   6. BD ( 1)Si 2- C 4        1.38  1.38  1.38  2.39     1.43  1.43  1.43  2.48
                                             deloc 200:  0.10 -0.07 -0.07  0.14
                                             deloc 204: -0.07  0.10 -0.07  0.14
                                             deloc 206: -0.07 -0.07  0.10  0.14
                                             deloc 210: -0.04  0.02  0.02  0.04
                                             deloc 211:  0.02  0.02 -0.04  0.04
                                             deloc 212:  0.02 -0.04  0.02  0.04

   7. BD ( 1)Si 2- C 5       -1.38 -1.38  1.38  2.39    -1.43 -1.43  1.43  2.48
                                             deloc 200:  0.07 -0.10 -0.07  0.14
                                             deloc 204: -0.10  0.07 -0.07  0.14
                                             deloc 205:  0.07  0.07  0.10  0.14
                                             deloc 213: -0.02  0.04  0.02  0.04
                                             deloc 214:  0.04 -0.02  0.02  0.04
                                             deloc 215: -0.02 -0.02 -0.04  0.04

   8. BD ( 1) C 3- H 9        0.35 -0.35 -1.69  1.76     0.29 -0.29 -1.73  1.78
                                             deloc 200:  0.02 -0.02  0.03  0.04
                                             deloc 204: -0.02  0.02 -0.02  0.04
                                             deloc 208: -0.01 -0.03  0.00  0.03
                                             deloc 209:  0.03  0.01  0.00  0.03
                                             deloc 205:  0.02  0.00  0.02  0.02
                                             deloc 206:  0.00 -0.02  0.02  0.02

   9. BD ( 1) C 3- H10        0.35  1.69  0.35  1.76     0.29  1.73  0.29  1.78
                                             deloc 205:  0.02 -0.03  0.02  0.04
                                             deloc 204: -0.02  0.02 -0.02  0.04
                                             deloc 207: -0.01  0.00  0.03  0.03
                                             deloc 209:  0.03  0.00 -0.01  0.03
                                             deloc 200:  0.02 -0.02  0.00  0.02
                                             deloc 206:  0.00 -0.02  0.02  0.02

  10. BD ( 1) C 3- H11       -1.69 -0.35  0.35  1.76    -1.73 -0.29  0.29  1.78
                                             deloc 206:  0.03 -0.02  0.02  0.04
                                             deloc 204: -0.02  0.02 -0.02  0.04
                                             deloc 207:  0.00  0.01  0.03  0.03
                                             deloc 208:  0.00 -0.03 -0.01  0.03
                                             deloc 200:  0.02 -0.02  0.00  0.02
                                             deloc 205:  0.02  0.00  0.02  0.02

  11. BD ( 1) C 4- H12        1.69 -0.35 -0.35  1.76     1.73 -0.29 -0.29  1.78
                                             deloc 200: -0.03 -0.02 -0.02  0.04
                                             deloc 205:  0.02  0.02  0.02  0.04
                                             deloc 211:  0.00  0.01 -0.03  0.03
                                             deloc 212:  0.00 -0.03  0.01  0.03
                                             deloc 204: -0.02  0.00 -0.02  0.02
                                             deloc 206: -0.02 -0.02  0.00  0.02

  12. BD ( 1) C 4- H13       -0.35 -0.35  1.69  1.76    -0.29 -0.29  1.73  1.78
                                             deloc 206: -0.02 -0.02 -0.03  0.04
                                             deloc 205:  0.02  0.02  0.02  0.04
                                             deloc 210: -0.03  0.01  0.00  0.03
                                             deloc 212:  0.01 -0.03  0.00  0.03
                                             deloc 200:  0.00 -0.02 -0.02  0.02
                                             deloc 204: -0.02  0.00 -0.02  0.02

  13. BD ( 1) C 4- H14       -0.35  1.69 -0.35  1.76    -0.29  1.73 -0.29  1.78
                                             deloc 204: -0.02 -0.03 -0.02  0.04
                                             deloc 205:  0.02  0.02  0.02  0.04
                                             deloc 210: -0.03  0.00  0.01  0.03
                                             deloc 211:  0.01  0.00 -0.03  0.03
                                             deloc 200:  0.00 -0.02 -0.02  0.02
                                             deloc 206: -0.02 -0.02  0.00  0.02

  14. BD ( 1) C 5- H15        0.35 -1.69 -0.35  1.76     0.29 -1.73 -0.29  1.78
                                             deloc 200:  0.02  0.03 -0.02  0.04
                                             deloc 206: -0.02 -0.02  0.02  0.04
                                             deloc 214:  0.03  0.00  0.01  0.03
                                             deloc 215: -0.01  0.00 -0.03  0.03
                                             deloc 204:  0.00  0.02 -0.02  0.02
                                             deloc 205:  0.02  0.02  0.00  0.02

  15. BD ( 1) C 5- H16       -1.69  0.35 -0.35  1.76    -1.73  0.29 -0.29  1.78
                                             deloc 204:  0.03  0.02 -0.02  0.04
                                             deloc 206: -0.02 -0.02  0.02  0.04
                                             deloc 213:  0.00  0.03  0.01  0.03
                                             deloc 215:  0.00 -0.01 -0.03  0.03
                                             deloc 200:  0.02  0.00 -0.02  0.02
                                             deloc 205:  0.02  0.02  0.00  0.02

  16. BD ( 1) C 5- H17        0.35  0.35  1.69  1.76     0.29  0.29  1.73  1.78
                                             deloc 205:  0.02  0.02 -0.03  0.04
                                             deloc 206: -0.02 -0.02  0.02  0.04
                                             deloc 213: -0.01  0.03  0.00  0.03
                                             deloc 214:  0.03 -0.01  0.00  0.03
                                             deloc 200:  0.02  0.00 -0.02  0.02
                                             deloc 204:  0.00  0.02 -0.02  0.02

  17. CR ( 1) C 1             0.00  0.00  0.00  0.00     0.00  0.00  0.00  0.00

  18. CR ( 1)Si 2             0.00  0.00  0.00  0.00     0.00  0.00  0.00  0.00

  19. CR ( 2)Si 2             0.00  0.00  0.00  0.00     0.00  0.00  0.00  0.00

  20. CR ( 3)Si 2             0.00  0.00  0.00  0.00     0.00  0.00  0.00  0.00

  21. CR ( 4)Si 2             0.00  0.00  0.00  0.00     0.00  0.00  0.00  0.00

  22. CR ( 5)Si 2             0.00  0.00  0.00  0.00     0.00  0.00  0.00  0.00

  23. CR ( 1) C 3             0.00  0.00  0.00  0.00     0.00  0.00  0.00  0.00

  24. CR ( 1) C 4             0.00  0.00  0.00  0.00     0.00  0.00  0.00  0.00

  25. CR ( 1) C 5             0.00  0.00  0.00  0.00     0.00  0.00  0.00  0.00
                            ----------------------------------------------------
         Net dipole moment    0.00  0.00  0.00  0.00     0.00  0.00  0.00  0.00
 Delocalization correction                               0.00  0.00  0.00  0.00
                            ----------------------------------------------------
       Total dipole moment    0.00  0.00  0.00  0.00     0.00  0.00  0.00  0.00

 SUMMARY: Total Natural Atomic and Molecular Charges and Atomic Hybridizations

    Atom     Natural Charge                 Valence Populations
    ----     --------------    --------------------------------------------
                                  S        P        D        F        G
 Unit  1:
     C  1   Q =  -1.02847 e     1.2115   3.8009   0.0167
                         ratio  1.000 :  3.137 :  0.014   
    Si  2   Q =   1.70211 e     0.7771   1.4985   0.0235
                         ratio  1.000 :  1.928 :  0.030   
     C  3   Q =  -1.02847 e     1.2115   3.8009   0.0167
                         ratio  1.000 :  3.137 :  0.014   
     C  4   Q =  -1.02847 e     1.2115   3.8009   0.0167
                         ratio  1.000 :  3.137 :  0.014   
     C  5   Q =  -1.02847 e     1.2115   3.8009   0.0167
                         ratio  1.000 :  3.137 :  0.014   
     H  6   Q =   0.20098 e     0.7983   0.0007
                         ratio  1.000 :  0.001   
     H  7   Q =   0.20098 e     0.7983   0.0007
                         ratio  1.000 :  0.001   
     H  8   Q =   0.20098 e     0.7983   0.0007
                         ratio  1.000 :  0.001   
     H  9   Q =   0.20098 e     0.7983   0.0007
                         ratio  1.000 :  0.001   
     H 10   Q =   0.20098 e     0.7983   0.0007
                         ratio  1.000 :  0.001   
     H 11   Q =   0.20098 e     0.7983   0.0007
                         ratio  1.000 :  0.001   
     H 12   Q =   0.20098 e     0.7983   0.0007
                         ratio  1.000 :  0.001   
     H 13   Q =   0.20098 e     0.7983   0.0007
                         ratio  1.000 :  0.001   
     H 14   Q =   0.20098 e     0.7983   0.0007
                         ratio  1.000 :  0.001   
     H 15   Q =   0.20098 e     0.7983   0.0007
                         ratio  1.000 :  0.001   
     H 16   Q =   0.20098 e     0.7983   0.0007
                         ratio  1.000 :  0.001   
     H 17   Q =   0.20098 e     0.7983   0.0007
                         ratio  1.000 :  0.001   

 Total, unit 1   0.000000
 Grand Total     0.000000

 Test job not archived.
 1\1\GINC-GWDU43\SP\RHF\6-311+G(2d,p)\C4H12Si1\CSTEINB3\25-Nov-1998\0\\
 #T RHF/6-311+G(2D,P) GEOM=ALLCHECK GUESS=READ NMR TEST\\TMS, Opt + NMR
 \\0,1\C,0.000000016,0.,-1.9100213469\Si,0.,0.,0.\C,1.8007853901,0.,0.6
 366737973\C,-0.900392703,1.5595258992,0.6366737748\C,-0.900392703,-1.5
 595258992,0.6366737748\H,1.0187603267,0.,-2.3153694005\H,-0.5093801343
 ,-0.8822723065,-2.3153694133\H,-0.5093801343,0.8822723065,-2.315369413
 3\H,2.5225379842,0.,-0.1887066049\H,2.0131578184,0.8822723065,1.252038
 0343\H,2.0131578184,-0.8822723065,1.2520380343\H,-1.2612689897,2.18458
 19749,-0.1887066365\H,-1.7706491554,1.3023096684,1.2520380027\H,-0.242
 5086944,2.1845819749,1.2520380155\H,-1.2612689897,-2.1845819749,-0.188
 7066365\H,-0.2425086944,-2.1845819749,1.2520380155\H,-1.7706491554,-1.
 3023096684,1.2520380027\\Version=SGI-G94RevD.4\HF=-447.4768801\RMSD=9.
 742e-09\Dipole=0.,0.,0.\PG=TD [O(Si1),4C3(C1),6SGD(H2)]\\@


 IT IS A QUALITY OF REVOLUTIONS NOT TO GO BY OLD LINES OR OLD LAWS,
 BUT TO BREAK UP BOTH, AND MAKE NEW ONES.
                                              -- A. LINCOLN (1848)
 Job cpu time:  0 days  1 hours 31 minutes  9.4 seconds.
 File lengths (MBytes):  RWF=   41 Int=    0 D2E=    0 Chk=    3 Scr=    1
 Normal termination of Gaussian 94
