 Entering Gaussian System, Link 0=/usr/local/chem/g92/g92
 Initial command:
 /usr/local/chem/g92/l1.exe /work/basmith/gaussian/g92/g92-15417.int-inp -scrdir /work/basmith/gaussian/g92
 Entering Link 1 = /usr/local/chem/g92/l1.exe PID=     15419.
  
               Copyright (c) 1992,1993 Gaussian, Inc.
                      All Rights Reserved.
  
 This work is based on the Gaussian 92(TM) system (copyright
 1992,1993 Gaussian, Inc.), the Gaussian 90(TM) system
 (copyright 1990 Gaussian, Inc.), the Gaussian 88(TM) system
 (copyright 1988 Gaussian, Inc.), the Gaussian 86(TM) system
 (copyright 1986 Carnegie Mellon University), and the Gaussian
 82(TM) system (copyright 1983 Carnegie Mellon University).
 Gaussian is a federally registered trademark of Gaussian, Inc.
  
 This software is provided under written license and may be
 used, copied, transmitted, or stored only in accord with that
 written license.
  
 The following legend is applicable only to US Government
 contracts under DFARS:
  
                    RESTRICTED RIGHTS LEGEND
  
 Use, duplication or disclosure by the US Government is subject
 to restrictions as set forth in subparagraph (c)(1)(ii) of the
 Rights in Technical Data and Computer Software clause at DFARS
 252.227-7013.
  
 Gaussian, Inc.
 Carnegie Office Park, Building 6, Pittsburgh, PA 15106 USA
  
 The following legend is applicable only to US Government
 contracts under FAR:
  
                    RESTRICTED RIGHTS LEGEND
  
 Use, reproduction and disclosure by the US Government is subject
 to restrictions as set forth in subparagraph (c) of the
 Commercial Computer Software - Restricted Rights clause at FAR
 52.227-19.
  
 Gaussian, Inc.
 Carnegie Office Park, Building 6, Pittsburgh, PA 15106 USA
  
 Cite this work as:
 Gaussian 92/DFT, Revision G.2, M. J. Frisch, G. W. Trucks,
 H. B. Schlegel, P. M. W. Gill, B. G. Johnson, M. W. Wong,
 J. B. Foresman, M. A. Robb, M. Head-Gordon, E. S. Replogle,
 R. Gomperts, J. L. Andres, K. Raghavachari, J. S. Binkley,
 C. Gonzalez, R. L. Martin, D. J. Fox, D. J. Defrees, J. Baker,
 J. J. P. Stewart, and J. A. Pople, Gaussian, Inc.,
 Pittsburgh PA, 1993.
  
 ********************************************
 Gaussian 92:  SGI-G92/DFT-RevG.2 28-Feb-1994
                 14-Jul-1997 
 ********************************************
 %chk=g92.chk
 -----------------------------------
 #RHF/6-31G* SCF=(tight,direct) FREQ
 -----------------------------------
 1/10=4,29=10000,30=1/1,3;
 2/12=2,17=6,18=5/2;
 3/5=1,6=6,7=1,11=1,25=1,30=1/1,2,3;
 4/7=1/1;
 5/5=2,32=2,38=4/2;
 8/6=4,11=11/1;
 10/13=10/2;
 11/6=2,8=1,9=11,15=111,16=11/1,2,10;
 10/6=1,9=1/2;
 7/8=1,10=1,25=1/1,2,3,16;
 1/10=4,30=1/3;
 6/7=2,8=2,9=2,10=2,18=1,28=1/1;
 99//99;
 ------------------
 Phenylnitrene, 1A1
 ------------------
 Symbolic Z-matrix:
    Charge = 0 Multiplicity = 1
 C     1.04388   0.        0. 
 C     0.34403   1.2156    0. 
 C     -1.03754  1.19114   0. 
 C     -1.74492  0.        0. 
 N     2.38857   0.        0. 
 H     0.87857   2.14684   0. 
 H     -1.56495  2.12872   0. 
 H     -2.81882  0.        0. 
 C     0.34403   -1.2156   0. 
 C     -1.03754  -1.19114  0. 
 H     0.87857   -2.14684  0. 
 H     -1.56495  -2.12872  0. 
 GradGradGradGradGradGradGradGradGradGradGradGradGradGradGradGradGradGrad
 Berny optimization.
 Initialization pass.
 No z-matrix variables hence no action by Optmz.
 ------------------------------------------------------------------------
                         Z-MATRIX (ANGSTROMS AND DEGREES)
 CD Cent Atom  N1     Length/X     N2    Alpha/Y     N3     Beta/Z      J
 ------------------------------------------------------------------------
   1   1  C     0   1.043880          0.000000          0.000000
   2   2  C     0   0.344031          1.215604          0.000000
   3   3  C     0  -1.037543          1.191141          0.000000
   4   4  C     0  -1.744922          0.000000          0.000000
   5   5  N     0   2.388568          0.000000          0.000000
   6   6  H     0   0.878573          2.146842          0.000000
   7   7  H     0  -1.564954          2.128718          0.000000
   8   8  H     0  -2.818815          0.000000          0.000000
   9   9  C     0   0.344031         -1.215604          0.000000
  10  10  C     0  -1.037543         -1.191141          0.000000
  11  11  H     0   0.878573         -2.146842          0.000000
  12  12  H     0  -1.564954         -2.128718          0.000000
 ------------------------------------------------------------------------
                  Z-Matrix orientation:
 ----------------------------------------------------------
 Center     Atomic              Coordinates (Angstroms)
 Number     Number             X           Y           Z
 ----------------------------------------------------------
    1          6           1.043880    0.000000    0.000000
    2          6           0.344031    1.215604    0.000000
    3          6          -1.037543    1.191141    0.000000
    4          6          -1.744922    0.000000    0.000000
    5          7           2.388568    0.000000    0.000000
    6          1           0.878573    2.146842    0.000000
    7          1          -1.564954    2.128718    0.000000
    8          1          -2.818815    0.000000    0.000000
    9          6           0.344031   -1.215604    0.000000
   10          6          -1.037543   -1.191141    0.000000
   11          1           0.878573   -2.146842    0.000000
   12          1          -1.564954   -2.128718    0.000000
 ----------------------------------------------------------
                    Distance matrix (angstroms):
              1          2          3          4          5
  1  C    0.000000
  2  C    1.402669   0.000000
  3  C    2.398152   1.381790   0.000000
  4  C    2.788802   2.416902   1.385353   0.000000
  5  N    1.344688   2.378618   3.627264   4.133490   0.000000
  6  H    2.153197   1.073750   2.141229   3.389935   2.624694
  7  H    3.367113   2.116129   1.075739   2.136312   4.490186
  8  H    3.862695   3.388405   2.142836   1.073893   5.207383
  9  C    1.402669   2.431207   2.775097   2.416902   2.378618
 10  C    2.398152   2.775097   2.382281   1.385353   3.627264
 11  H    2.153197   3.404670   3.848848   3.389935   2.624694
 12  H    3.367113   3.850806   3.361491   2.136312   4.490186
              6          7          8          9         10
  6  H    0.000000
  7  H    2.443594   0.000000
  8  H    4.275466   2.470548   0.000000
  9  C    3.404670   3.850806   3.388405   0.000000
 10  C    3.848848   3.361491   2.142836   1.381790   0.000000
 11  H    4.293684   4.924554   4.275466   1.073750   2.141229
 12  H    4.924554   4.257436   2.470548   2.116129   1.075739
             11         12
 11  H    0.000000
 12  H    2.443594   0.000000
                           Interatomic angles:
       C1-C2-C3=118.9155       C1-C2-C4= 89.734        C1-C3-C4= 90.9234
       C2-C3-C4=121.7191       C2-C1-N5=119.9299       C3-C1-N5=150.2187
       C3-C2-N5=148.2515       C4-C1-N5=180.           C4-C2-N5=119.0699
       C1-C2-H6=120.2137       C1-H6-C3= 67.8944       C3-C2-H6=120.8707
       C4-C1-H6= 85.5969       C4-C2-H6=150.0523       C4-C3-H6=147.2134
       N5-C1-H6= 94.4031       N5-C2-H6= 90.8778       C3-H6-N5= 98.6122
       C1-C2-H7=145.4929       C1-C3-H7=149.1402       C2-C3-H7=118.3445
       C1-C4-H7= 85.1675       C2-H7-C4= 69.2695       C4-C3-H7=119.9364
       N5-C2-H7=174.8288       C1-H6-H7= 93.9781       H6-C2-H7= 94.2934
       H6-C3-H7= 92.8502       C4-H7-H6= 95.2574       N5-H6-H7=124.6959
       C1-C3-H8=116.448        C2-C3-H8=147.2437       C1-C4-H8=180.    
       C2-C4-H8=149.804        C3-C4-H8=120.7047       H6-C3-H8=172.7379
       C2-H7-H8= 94.9361       H7-C3-H8= 94.4119       H7-C4-H8= 94.8325
       H6-H7-H8=120.924        C2-C1-C9=120.1401       C3-C1-C9= 89.8514
       C3-C2-C9= 88.9856       C1-C9-C4= 89.734        C2-C4-C9= 60.392 
       C3-C4-C9= 89.4913       N5-C1-C9=119.9299       C2-N5-C9= 61.4682
       C3-C9-N5= 89.1235       C4-C9-N5=119.0699       H6-C1-C9=145.667 
       H6-C2-C9=150.1437       H6-C3-C9= 86.651        H6-N5-C9= 85.6132
       H7-C2-C9=115.5629       H7-C3-C9=179.5012       H7-C4-C9=115.3635
       H8-C3-C9= 86.0869       H8-C4-C9=149.804       C2-C1-C10= 89.8514
      C1-C3-C10= 60.2187      C2-C3-C10= 91.0144      C1-C10-C4= 90.9234
      C2-C4-C10= 89.4913      C3-C4-C10=118.5906      N5-C1-C10=150.2187
      N5-C2-C10= 89.1235      H6-C1-C10=115.3782      H6-C2-C10=179.9987
      H6-C3-C10=116.5087      H7-C2-C10= 85.7053      H7-C3-C10=150.6411
      H7-C4-C10=144.4628      C1-C10-H8=116.448       C2-C10-H8= 86.0869
      C3-H8-C10= 67.5415      H8-C4-C10=120.7047      H7-H8-C10= 93.2717
      C1-C9-C10=118.9155      C2-C9-C10= 88.9856      C3-C10-C9= 91.0144
      C4-C10-C9=121.7191      N5-C9-C10=148.2515      H8-C10-C9=147.2437
      C2-C1-H11=145.667       C3-C1-H11=115.3782      C4-C1-H11= 85.5969
      N5-C1-H11= 94.4031      C2-N5-H11= 85.6132      H6-C1-H11=171.1938
      H6-N5-H11=109.7582      C1-C9-H11=120.2137      C2-C9-H11=150.1437
      C3-C9-H11=179.9987      C4-C9-H11=150.0523      N5-C9-H11= 90.8778
     C1-H11-C10= 67.8944     C2-C10-H11= 86.651      C3-C10-H11=116.5087
     C4-C10-H11=147.2134     N5-H11-C10= 98.6122     H8-C10-H11=172.7379
     C10-C9-H11=120.8707      C1-C4-H12= 85.1675      C2-C4-H12=115.3635
      C3-C4-H12=144.4628      H7-C4-H12=170.3351      C3-H8-H12= 93.2717
      H8-C4-H12= 94.8325      H7-H8-H12=119.002       C1-C9-H12=145.4929
      C2-C9-H12=115.5629      C3-C9-H12= 85.7053      C4-H12-C9= 69.2695
      N5-C9-H12=174.8288      H8-H12-C9= 94.9361     C1-C10-H12=149.1402
     C2-C10-H12=179.5012     C3-C10-H12=150.6411     C4-C10-H12=119.9364
     H8-C10-H12= 94.4119     C9-C10-H12=118.3445     C1-H11-H12= 93.9781
     C4-H12-H11= 95.2574     N5-H11-H12=124.6959     H8-H12-H11=120.924 
     H11-C9-H12= 94.2934    H11-C10-H12= 92.8502
 STOICHIOMETRY    C6H5N
 FRAMEWORK GROUP  C2V[C2(HCCN),SGV(C4H4)]
 DEG. OF FREEDOM   11
 FULL POINT GROUP                 C2V     NOP  4
 LARGEST ABELIAN SUBGROUP         C2V     NOP  4
 LARGEST CONCISE ABELIAN SUBGROUP C2      NOP  2
                   Standard orientation:
 ----------------------------------------------------------
 Center     Atomic              Coordinates (Angstroms)
 Number     Number             X           Y           Z
 ----------------------------------------------------------
    1          6           0.000000    0.000000    1.043880
    2          6           0.000000    1.215604    0.344031
    3          6           0.000000    1.191141   -1.037543
    4          6           0.000000    0.000000   -1.744922
    5          7           0.000000    0.000000    2.388568
    6          1           0.000000    2.146842    0.878573
    7          1           0.000000    2.128718   -1.564954
    8          1           0.000000    0.000000   -2.818815
    9          6           0.000000   -1.215604    0.344031
   10          6           0.000000   -1.191141   -1.037543
   11          1           0.000000   -2.146842    0.878573
   12          1           0.000000   -2.128718   -1.564954
 ----------------------------------------------------------
 Rotational constants (GHZ):      5.7468627      2.9298966      1.9405532
 Isotopes: C-12,C-12,C-12,C-12,N-14,H-1,H-1,H-1,C-12,C-12,H-1,H-1
 Standard basis: 6-31G(D)     (S, S=P, 6D, 7F)
 There are    52 symmetry adapted basis functions of A1  symmetry.
 There are    11 symmetry adapted basis functions of A2  symmetry.
 There are    17 symmetry adapted basis functions of B1  symmetry.
 There are    35 symmetry adapted basis functions of B2  symmetry.
 Crude estimate of integral set expansion from redundant integrals=1.029.
 Integral buffers will be    262144 words long.
 Raffenetti 1 integral format.
 Two-electron integral symmetry is turned on.
   115 basis functions      216 primitive gaussians
    24 alpha electrons       24 beta electrons
       nuclear repulsion energy       253.0203958328 Hartrees.
 One-electron integrals computed using PRISM.
 One-electron integral symmetry used in STVInt
 The smallest eigenvalue of the overlap matrix is  4.606D-04
 DipDrv:  MaxL=4.
 DipDrv:  will hold 34 matrices at once.
 PROJECTED INDO GUESS.
 INITIAL GUESS ORBITAL SYMMETRIES.
       OCCUPIED  (A1) (?A) (?A) (A1) (A1) (?A) (?A) (A1) (A1) (B2)
                 (A1) (B2) (A1) (B1) (A1) (B2) (A1) (B2) (B1) (A1)
                 (B2) (A2) (A1) (B1)
       VIRTUAL   (B2) (A2) (B1) (A1) (A1) (A1) (B2) (B2) (A1) (B1)
                 (B2) (A1) (A1) (B2) (A1) (B2) (A1) (B1) (B2) (A1)
                 (A1) (B1) (B2) (A1) (A1) (A1) (A1) (A2) (B1) (B2)
                 (?B) (B1) (?B) (?B) (?B) (B1) (?B) (?B) (?B) (?B)
                 (?B) (B1) (B1) (?B) (?B) (B1) (?B) (?B) (?B) (B1)
                 (?B) (?B) (?B) (?B) (?B) (B1) (?B) (?B) (B1) (?B)
                 (?B) (?B) (B1) (?B) (?B) (?B) (?B) (?B) (B1) (B1)
                 (?B) (B1) (?B) (?B) (?B) (?B) (B1) (B1) (?B) (?B)
                 (?B) (B1) (?B) (?B) (?B) (B1) (?B) (?B) (?B) (B1)
                 (?B)
 Alpha deviation from unit magnitude is 3.44D-14 for orbital   48.
 Alpha deviation from orthogonality  is 3.71D-14 for orbitals  86  45.
 Requested convergence on RMS density matrix=1.00D-08 within  64 cycles.
 Requested convergence on MAX density matrix=1.00D-06.
 Integral accuracy reduced to 1.0D-05 until final iterations.
 Initial convergence to 1.0D-05 achieved.  Increase integral accuracy.
 SCF Done:  E(RHF) =  -284.418325039     A.U. after   16 cycles
             Convg  =    0.1192D-08             -V/T =  2.0011
             S**2   =   0.0000
 Range of M.O.s used for correlation:     1   115
 NBasis=   115 NAE=    24 NBE=    24 NFC=     0 NFV=     0
  NROrb=   115 NOA=    24 NOB=    24 NVA=    91 NVB=    91
          Differentiating once with respect to electric field.
                with respect to dipole field.
 MinBra= 0 MaxBra= 3 MinLOS=-1 MaxLOS=-1 MinRaf= 0 MaxRaf= 3 MinLRy= 4.
 IRaf=       0 NMat=   3 IRICut=       1 DoRegI=T DoRafI=F ISym2E= 2 JSym2E=2.
 Integrals replicated using symmetry in FoFDir.
          There are   3 degrees of freedom in the 1st order CPHF.
   3 vectors were produced by pass  0.
 AX will form   3 AO Fock derivatives at one time.
   3 vectors were produced by pass  1.
   3 vectors were produced by pass  2.
   3 vectors were produced by pass  3.
   3 vectors were produced by pass  4.
   3 vectors were produced by pass  5.
   3 vectors were produced by pass  6.
   3 vectors were produced by pass  7.
   3 vectors were produced by pass  8.
   3 vectors were produced by pass  9.
   2 vectors were produced by pass 10.
   2 vectors were produced by pass 11.
   1 vectors were produced by pass 12.
   1 vectors were produced by pass 13.
 Inv2:  IOpt= 1 Iter= 1 AM= 1.28D-15 Conv= 1.00D-12.
 Inverted reduced A of dimension  36 with in-core refinement.
 Grad1E:  Ngot =  2000000
 Grad1E:  In-core method used.
 RysSet:  KIntrp=    10241   KCalc=        0   KAssym=    48487
 Using generalized density number  0.
 G2DrvN: can do  12 atoms at a time, so will make   1 passes doing MaxLOS=2.
 FoFDir used for L=0 through L=2.
          Differentiating once with respect to electric field.
                with respect to dipole field.
          Differentiating once with respect to nuclear coordinates.
 MinBra= 0 MaxBra= 3 MinLOS=-1 MaxLOS=-1 MinRaf= 0 MaxRaf= 3 MinLRy= 4.
 IRaf=       0 NMat=  27 IRICut=      13 DoRegI=T DoRafI=T ISym2E= 2 JSym2E=2.
 Integrals replicated using symmetry in FoFDir.
          There are  27 degrees of freedom in the 1st order CPHF.
  27 vectors were produced by pass  0.
 AX will form  27 AO Fock derivatives at one time.
  27 vectors were produced by pass  1.
  27 vectors were produced by pass  2.
  27 vectors were produced by pass  3.
  27 vectors were produced by pass  4.
  27 vectors were produced by pass  5.
  26 vectors were produced by pass  6.
  11 vectors were produced by pass  7.
   3 vectors were produced by pass  8.
 Inv2:  IOpt= 1 Iter= 1 AM= 5.88D-14 Conv= 1.00D-12.
 Inverted reduced A of dimension 202 with in-core refinement.
 Compute integral second derivatives.
 ... and contract with generalized density number  0.
 Use density number 0.
 RysSet:  KIntrp=    10985   KCalc=        0   KAssym=    47743
 L702 exits ... SP integral derivatives will be done elsewhere.
 Full mass-weighted force constant matrix:
 Low frequencies ---   -0.0033   -0.0012    0.0015    4.1380    7.3070   11.1698
 Low frequencies ---  251.6760  306.9127  496.9936
 Harmonic frequencies (cm**-1), IR intensities (KM/Mole),
 Raman scattering activities (A**4/AMU), Raman depolarization ratios,
 reduced masses (AMU), force constants (mDyne/A) and normal coordinates:
                           1         2         3         4         5
                          B1        B2        A2        A1        B1
       Frequencies ---   251.6759  306.9126  496.9936  554.8730  560.1715
    Reduced masses ---     5.2279    7.3813    3.0687    8.4053    2.9412
   Force constants ---     0.1951    0.4097    0.4466    1.5247    0.5438
    IR Intensities ---     0.1737    4.0142    0.0000    1.4164    8.4297
  Raman Activities ---     1.5230    1.2659    0.0383    4.8232    0.0160
   Depolarizations ---     0.7500    0.7500    0.7500    0.6340    0.7500
 Coord Atom Element:
   1     1     6          0.11691   0.00000   0.00000   0.00000   0.30443
   2     1     6          0.00000   0.29194   0.00000   0.00000   0.00000
   3     1     6          0.00000   0.00000   0.00000  -0.31419   0.00000
   1     2     6          0.27169   0.00000   0.22217   0.00000   0.01215
   2     2     6          0.00000   0.19322   0.00000   0.20850   0.00000
   3     2     6          0.00000  -0.11214   0.00000   0.06952   0.00000
   1     3     6          0.00612   0.00000  -0.21068   0.00000  -0.12973
   2     3     6          0.00000  -0.00059   0.00000   0.16066   0.00000
   3     3     6          0.00000  -0.15744   0.00000   0.13621   0.00000
   1     4     6         -0.27735   0.00000   0.00000   0.00000   0.18857
   2     4     6          0.00000  -0.06523   0.00000   0.00000   0.00000
   3     4     6          0.00000   0.00000   0.00000   0.36971   0.00000
   1     5     7         -0.35097   0.00000   0.00000   0.00000  -0.10763
   2     5     7          0.00000  -0.53702   0.00000   0.00000   0.00000
   3     5     7          0.00000   0.00000   0.00000  -0.46190   0.00000
   1     6     1          0.38852   0.00000   0.39219   0.00000  -0.37444
   2     6     1          0.00000   0.26444   0.00000   0.06311   0.00000
   3     6     1          0.00000  -0.24037   0.00000   0.31989   0.00000
   1     7     1         -0.01290   0.00000  -0.50244   0.00000  -0.50562
   2     7     1          0.00000  -0.07200   0.00000   0.03952   0.00000
   3     7     1          0.00000  -0.28545   0.00000  -0.07710   0.00000
   1     8     1         -0.57991   0.00000   0.00000   0.00000   0.18576
   2     8     1          0.00000  -0.20973   0.00000   0.00000   0.00000
   3     8     1          0.00000   0.00000   0.00000   0.37185   0.00000
   1     9     6          0.27169   0.00000  -0.22217   0.00000   0.01215
   2     9     6          0.00000   0.19322   0.00000  -0.20850   0.00000
   3     9     6          0.00000   0.11214   0.00000   0.06952   0.00000
   1    10     6          0.00612   0.00000   0.21068   0.00000  -0.12973
   2    10     6          0.00000  -0.00059   0.00000  -0.16066   0.00000
   3    10     6          0.00000   0.15744   0.00000   0.13621   0.00000
   1    11     1          0.38852   0.00000  -0.39219   0.00000  -0.37444
   2    11     1          0.00000   0.26444   0.00000  -0.06311   0.00000
   3    11     1          0.00000   0.24037   0.00000   0.31989   0.00000
   1    12     1         -0.01290   0.00000   0.50244   0.00000  -0.50562
   2    12     1          0.00000  -0.07200   0.00000  -0.03952   0.00000
   3    12     1          0.00000   0.28545   0.00000  -0.07710   0.00000
                           6         7         8         9        10
                          B2        B1        B1        A1        A2
       Frequencies ---   671.5923  761.6204  815.6071  885.2657  906.3229
    Reduced masses ---     6.3917    2.7516    1.4262    6.1209    1.2320
   Force constants ---     1.6985    0.9404    0.5590    2.8263    0.5962
    IR Intensities ---     0.2472    1.1895  111.6436    8.0891    0.0000
  Raman Activities ---     3.7362    0.0299    0.2462   11.6541    2.7319
   Depolarizations ---     0.7500    0.7500    0.7500    0.1627    0.7500
 Coord Atom Element:
   1     1     6          0.00000  -0.20114   0.14288   0.00000   0.00000
   2     1     6         -0.14341   0.00000   0.00000   0.00000   0.00000
   3     1     6          0.00000   0.00000   0.00000  -0.00482   0.00000
   1     2     6          0.00000   0.12299  -0.06339   0.00000  -0.08864
   2     2     6         -0.22389   0.00000   0.00000  -0.17078   0.00000
   3     2     6         -0.22828   0.00000   0.00000   0.09478   0.00000
   1     3     6          0.00000  -0.17184  -0.04207   0.00000  -0.04837
   2     3     6          0.24260   0.00000   0.00000  -0.27767   0.00000
   3     3     6         -0.24830   0.00000   0.00000   0.17102   0.00000
   1     4     6          0.00000   0.16854  -0.06964   0.00000   0.00000
   2     4     6          0.15192   0.00000   0.00000   0.00000   0.00000
   3     4     6          0.00000   0.00000   0.00000  -0.19410   0.00000
   1     5     7          0.00000   0.01973  -0.03212   0.00000   0.00000
   2     5     7         -0.02346   0.00000   0.00000   0.00000   0.00000
   3     5     7          0.00000   0.00000   0.00000  -0.34223   0.00000
   1     6     1          0.00000   0.54555   0.28980   0.00000   0.64288
   2     6     1         -0.30949   0.00000   0.00000  -0.14024   0.00000
   3     6     1         -0.07789   0.00000   0.00000   0.01397   0.00000
   1     7     1          0.00000  -0.13571   0.42231   0.00000   0.27660
   2     7     1          0.33127   0.00000   0.00000  -0.11367   0.00000
   3     7     1         -0.09276   0.00000   0.00000   0.47708   0.00000
   1     8     1          0.00000   0.45756   0.66142   0.00000   0.00000
   2     8     1         -0.26443   0.00000   0.00000   0.00000   0.00000
   3     8     1          0.00000   0.00000   0.00000  -0.18816   0.00000
   1     9     6          0.00000   0.12299  -0.06339   0.00000   0.08864
   2     9     6         -0.22389   0.00000   0.00000   0.17078   0.00000
   3     9     6          0.22828   0.00000   0.00000   0.09478   0.00000
   1    10     6          0.00000  -0.17184  -0.04207   0.00000   0.04837
   2    10     6          0.24260   0.00000   0.00000   0.27767   0.00000
   3    10     6          0.24830   0.00000   0.00000   0.17102   0.00000
   1    11     1          0.00000   0.54555   0.28980   0.00000  -0.64288
   2    11     1         -0.30949   0.00000   0.00000   0.14024   0.00000
   3    11     1          0.07789   0.00000   0.00000   0.01397   0.00000
   1    12     1          0.00000  -0.13571   0.42231   0.00000  -0.27660
   2    12     1          0.33127   0.00000   0.00000   0.11367   0.00000
   3    12     1          0.09276   0.00000   0.00000   0.47708   0.00000
                          11        12        13        14        15
                          B1        A1        A2        B1        A1
       Frequencies ---   954.3123 1045.4868 1090.6792 1106.0149 1126.0255
    Reduced masses ---     1.3879    5.6463    1.3517    1.2875    2.2130
   Force constants ---     0.7447    3.6363    0.9474    0.9279    1.6532
    IR Intensities ---     9.8770    5.2101    0.0000    1.3927    1.1215
  Raman Activities ---     1.2223   34.4663    0.9413    0.4714   10.8122
   Depolarizations ---     0.7500    0.1191    0.7500    0.7500    0.1016
 Coord Atom Element:
   1     1     6         -0.06862   0.00000   0.00000  -0.00724   0.00000
   2     1     6          0.00000   0.00000   0.00000   0.00000   0.00000
   3     1     6          0.00000   0.10927   0.00000   0.00000  -0.01417
   1     2     6          0.09850   0.00000   0.05697  -0.02984   0.00000
   2     2     6          0.00000   0.36415   0.00000   0.00000  -0.04414
   3     2     6          0.00000   0.13049   0.00000   0.00000   0.07787
   1     3     6         -0.01466   0.00000  -0.11133   0.08805   0.00000
   2     3     6          0.00000  -0.06936   0.00000   0.00000   0.17057
   3     3     6          0.00000   0.00505   0.00000   0.00000  -0.01650
   1     4     6         -0.09817   0.00000   0.00000  -0.08998   0.00000
   2     4     6          0.00000   0.00000   0.00000   0.00000   0.00000
   3     4     6          0.00000  -0.31740   0.00000   0.00000  -0.18501
   1     5     7          0.01825   0.00000   0.00000  -0.00190   0.00000
   2     5     7          0.00000   0.00000   0.00000   0.00000   0.00000
   3     5     7          0.00000  -0.01763   0.00000   0.00000  -0.01963
   1     6     1         -0.53166   0.00000  -0.28027   0.20878   0.00000
   2     6     1          0.00000   0.47253   0.00000   0.00000  -0.21502
   3     6     1          0.00000  -0.03347   0.00000   0.00000   0.38700
   1     7     1          0.08964   0.00000   0.63703  -0.56233   0.00000
   2     7     1          0.00000  -0.08865   0.00000   0.00000   0.36716
   3     7     1          0.00000  -0.05482   0.00000   0.00000   0.30615
   1     8     1          0.61975   0.00000   0.00000   0.50494   0.00000
   2     8     1          0.00000   0.00000   0.00000   0.00000   0.00000
   3     8     1          0.00000  -0.32791   0.00000   0.00000  -0.20336
   1     9     6          0.09850   0.00000  -0.05697  -0.02984   0.00000
   2     9     6          0.00000  -0.36415   0.00000   0.00000   0.04414
   3     9     6          0.00000   0.13049   0.00000   0.00000   0.07787
   1    10     6         -0.01466   0.00000   0.11133   0.08805   0.00000
   2    10     6          0.00000   0.06936   0.00000   0.00000  -0.17057
   3    10     6          0.00000   0.00505   0.00000   0.00000  -0.01650
   1    11     1         -0.53166   0.00000   0.28027   0.20878   0.00000
   2    11     1          0.00000  -0.47253   0.00000   0.00000   0.21502
   3    11     1          0.00000  -0.03347   0.00000   0.00000   0.38700
   1    12     1          0.08964   0.00000  -0.63703  -0.56233   0.00000
   2    12     1          0.00000   0.08865   0.00000   0.00000  -0.36716
   3    12     1          0.00000  -0.05482   0.00000   0.00000   0.30615
                          16        17        18        19        20
                          B2        B2        A1        B2        A1
       Frequencies ---  1169.3482 1195.8327 1295.8197 1309.7455 1381.4085
    Reduced masses ---     2.4942    2.1916    1.2365    1.3087    5.6514
   Force constants ---     2.0094    1.8465    1.2233    1.3227    6.3540
    IR Intensities ---     3.2496   42.9696   24.4680    0.6935   31.3899
  Raman Activities ---     2.7607    0.1567    4.1157    2.6275   16.7189
   Depolarizations ---     0.7500    0.7500    0.2250    0.7500    0.1753
 Coord Atom Element:
   1     1     6          0.00000   0.00000   0.00000   0.00000   0.00000
   2     1     6          0.19706  -0.09583   0.00000  -0.13097   0.00000
   3     1     6          0.00000   0.00000   0.07167   0.00000  -0.50706
   1     2     6          0.00000   0.00000   0.00000   0.00000   0.00000
   2     2     6         -0.11932   0.03695   0.01260   0.04731   0.06479
   3     2     6         -0.03466  -0.16140  -0.06065  -0.05100  -0.05605
   1     3     6          0.00000   0.00000   0.00000   0.00000   0.00000
   2     3     6         -0.11223   0.02141   0.04521   0.01232  -0.09008
   3     3     6         -0.00565   0.13743   0.03219   0.01049   0.12644
   1     4     6          0.00000   0.00000   0.00000   0.00000   0.00000
   2     4     6          0.20062  -0.06764   0.00000   0.00058   0.00000
   3     4     6          0.00000   0.00000   0.02412   0.00000  -0.06070
   1     5     7          0.00000   0.00000   0.00000   0.00000   0.00000
   2     5     7          0.00239  -0.01868   0.00000  -0.00341   0.00000
   3     5     7          0.00000   0.00000  -0.03256   0.00000   0.28903
   1     6     1          0.00000   0.00000   0.00000   0.00000   0.00000
   2     6     1          0.02032   0.20002   0.22428  -0.00859   0.01241
   3     6     1         -0.29924  -0.46100  -0.43833   0.04955   0.03612
   1     7     1          0.00000   0.00000   0.00000   0.00000   0.00000
   2     7     1         -0.05032   0.16615   0.26489  -0.24116   0.12183
   3     7     1          0.12354   0.40315   0.42044  -0.44138   0.52756
   1     8     1          0.00000   0.00000   0.00000   0.00000   0.00000
   2     8     1          0.80578   0.08392   0.00000   0.67943   0.00000
   3     8     1          0.00000   0.00000   0.02539   0.00000  -0.05958
   1     9     6          0.00000   0.00000   0.00000   0.00000   0.00000
   2     9     6         -0.11932   0.03695  -0.01260   0.04731  -0.06479
   3     9     6          0.03466   0.16140  -0.06065   0.05100  -0.05605
   1    10     6          0.00000   0.00000   0.00000   0.00000   0.00000
   2    10     6         -0.11223   0.02141  -0.04521   0.01232   0.09008
   3    10     6          0.00565  -0.13743   0.03219  -0.01049   0.12644
   1    11     1          0.00000   0.00000   0.00000   0.00000   0.00000
   2    11     1          0.02032   0.20002  -0.22428  -0.00859  -0.01241
   3    11     1          0.29924   0.46100  -0.43833  -0.04955   0.03612
   1    12     1          0.00000   0.00000   0.00000   0.00000   0.00000
   2    12     1         -0.05032   0.16615  -0.26489  -0.24116  -0.12183
   3    12     1         -0.12354  -0.40315   0.42044   0.44138   0.52756
                          21        22        23        24        25
                          B2        B2        A1        B2        A1
       Frequencies ---  1463.8493 1582.4009 1619.5606 1731.3209 1783.9488
    Reduced masses ---     1.3808    2.0170    1.8325    4.1690    4.7133
   Force constants ---     1.7433    2.9757    2.8319    7.3628    8.8377
    IR Intensities ---    10.4110    1.8749   41.8333   31.0673   45.1357
  Raman Activities ---     0.5762    0.1816    3.5387    4.1965   32.7810
   Depolarizations ---     0.7500    0.7500    0.6544    0.7500    0.6698
 Coord Atom Element:
   1     1     6          0.00000   0.00000   0.00000   0.00000   0.00000
   2     1     6         -0.09510   0.12157   0.00000  -0.17094   0.00000
   3     1     6          0.00000   0.00000  -0.10808   0.00000   0.10574
   1     2     6          0.00000   0.00000   0.00000   0.00000   0.00000
   2     2     6         -0.01112  -0.06575  -0.08362   0.13855   0.02267
   3     2     6          0.08642  -0.06830   0.11164  -0.11464  -0.23408
   1     3     6          0.00000   0.00000   0.00000   0.00000   0.00000
   2     3     6          0.00216   0.03727   0.08334  -0.18542   0.10675
   3     3     6         -0.02516   0.16163   0.04989  -0.02995   0.28890
   1     4     6          0.00000   0.00000   0.00000   0.00000   0.00000
   2     4     6          0.09166   0.06327   0.00000   0.35091   0.00000
   3     4     6          0.00000   0.00000  -0.07397   0.00000  -0.15997
   1     5     7          0.00000   0.00000   0.00000   0.00000   0.00000
   2     5     7          0.00479  -0.00447   0.00000  -0.00009   0.00000
   3     5     7          0.00000   0.00000   0.00861   0.00000   0.00115
   1     6     1          0.00000   0.00000   0.00000   0.00000   0.00000
   2     6     1          0.33949  -0.13734   0.26035  -0.11648  -0.22822
   3     6     1         -0.52056   0.02386  -0.49418   0.33574   0.15295
   1     7     1          0.00000   0.00000   0.00000   0.00000   0.00000
   2     7     1         -0.09816  -0.30415  -0.13369  -0.09281  -0.28527
   3     7     1         -0.20920  -0.41880  -0.35803   0.19285  -0.39551
   1     8     1          0.00000   0.00000   0.00000   0.00000   0.00000
   2     8     1         -0.29460  -0.57752   0.00000  -0.60682   0.00000
   3     8     1          0.00000   0.00000  -0.09426   0.00000  -0.19056
   1     9     6          0.00000   0.00000   0.00000   0.00000   0.00000
   2     9     6         -0.01112  -0.06575   0.08362   0.13855  -0.02267
   3     9     6         -0.08642   0.06830   0.11164   0.11464  -0.23408
   1    10     6          0.00000   0.00000   0.00000   0.00000   0.00000
   2    10     6          0.00216   0.03727  -0.08334  -0.18542  -0.10675
   3    10     6          0.02516  -0.16163   0.04989   0.02995   0.28890
   1    11     1          0.00000   0.00000   0.00000   0.00000   0.00000
   2    11     1          0.33949  -0.13734  -0.26035  -0.11648   0.22822
   3    11     1          0.52056  -0.02386  -0.49418  -0.33574   0.15295
   1    12     1          0.00000   0.00000   0.00000   0.00000   0.00000
   2    12     1         -0.09816  -0.30415   0.13369  -0.09281   0.28527
   3    12     1          0.20920   0.41880  -0.35803  -0.19285  -0.39551
                          26        27        28        29        30
                          A1        B2        A1        B2        A1
       Frequencies ---  3359.7554 3366.3644 3384.8139 3389.5252 3396.5785
    Reduced masses ---     1.0865    1.0898    1.0926    1.0941    1.0986
   Force constants ---     7.2257    7.2767    7.3756    7.4060    7.4672
    IR Intensities ---     2.7996   10.9942    9.3952   22.2405   12.2211
  Raman Activities ---    25.9020  115.6664   85.8527    8.8440  261.6633
   Depolarizations ---     0.5172    0.7500    0.5352    0.7500    0.1058
 Coord Atom Element:
   1     1     6          0.00000   0.00000   0.00000   0.00000   0.00000
   2     1     6          0.00000   0.00062   0.00000   0.00283   0.00000
   3     1     6          0.00100   0.00000  -0.00023   0.00000  -0.00004
   1     2     6          0.00000   0.00000   0.00000   0.00000   0.00000
   2     2     6         -0.01842  -0.02228   0.04400  -0.04800   0.02307
   3     2     6         -0.00944  -0.01079   0.02606  -0.02956   0.01565
   1     3     6          0.00000   0.00000   0.00000   0.00000   0.00000
   2     3     6          0.04396   0.04886   0.00201  -0.02253   0.03183
   3     3     6         -0.02480  -0.02688  -0.00577   0.01519  -0.01624
   1     4     6          0.00000   0.00000   0.00000   0.00000   0.00000
   2     4     6          0.00000  -0.00376   0.00000   0.00284   0.00000
   3     4     6          0.03465   0.00000   0.04909   0.00000  -0.06438
   1     5     7          0.00000   0.00000   0.00000   0.00000   0.00000
   2     5     7          0.00000  -0.00012   0.00000  -0.00033   0.00000
   3     5     7         -0.00093   0.00000   0.00082   0.00000   0.00056
   1     6     1          0.00000   0.00000   0.00000   0.00000   0.00000
   2     6     1          0.21790   0.25795  -0.50610   0.55586  -0.26748
   3     6     1          0.12153   0.14351  -0.28764   0.31801  -0.15508
   1     7     1          0.00000   0.00000   0.00000   0.00000   0.00000
   2     7     1         -0.51278  -0.55751  -0.04004   0.25438  -0.33415
   3     7     1          0.28950   0.31353   0.02778  -0.14577   0.18502
   1     8     1          0.00000   0.00000   0.00000   0.00000   0.00000
   2     8     1          0.00000   0.00508   0.00000  -0.00379   0.00000
   3     8     1         -0.41814   0.00000  -0.55659   0.00000   0.71329
   1     9     6          0.00000   0.00000   0.00000   0.00000   0.00000
   2     9     6          0.01842  -0.02228  -0.04400  -0.04800  -0.02307
   3     9     6         -0.00944   0.01079   0.02606   0.02956   0.01565
   1    10     6          0.00000   0.00000   0.00000   0.00000   0.00000
   2    10     6         -0.04396   0.04886  -0.00201  -0.02253  -0.03183
   3    10     6         -0.02480   0.02688  -0.00577  -0.01519  -0.01624
   1    11     1          0.00000   0.00000   0.00000   0.00000   0.00000
   2    11     1         -0.21791   0.25795   0.50610   0.55586   0.26748
   3    11     1          0.12153  -0.14351  -0.28764  -0.31801  -0.15508
   1    12     1          0.00000   0.00000   0.00000   0.00000   0.00000
   2    12     1          0.51278  -0.55751   0.04004   0.25438   0.33415
   3    12     1          0.28950  -0.31353   0.02778   0.14577   0.18502
 Harmonic frequencies (cm**-1), IR intensities (KM/Mole),
 Raman scattering activities (A**4/AMU), Raman depolarization ratios,
 reduced masses (AMU), force constants (mDyne/A) and normal coordinates:
                     1                      2                      3
                    B1                     B2                     A2
 Frequencies --   251.6759               306.9126               496.9936
 Red. masses --     5.2279                 7.3813                 3.0687
 Frc consts  --     0.1951                 0.4097                 0.4466
 IR Inten    --     0.1737                 4.0142                 0.0000
 Raman Activ --     1.5230                 1.2659                 0.0383
 Depolar     --     0.7500                 0.7500                 0.7500
 Atom AN      X      Y      Z        X      Y      Z        X      Y      Z
   1   6     0.12   0.00   0.00     0.00   0.29   0.00     0.00   0.00   0.00
   2   6     0.27   0.00   0.00     0.00   0.19  -0.11     0.22   0.00   0.00
   3   6     0.01   0.00   0.00     0.00   0.00  -0.16    -0.21   0.00   0.00
   4   6    -0.28   0.00   0.00     0.00  -0.07   0.00     0.00   0.00   0.00
   5   7    -0.35   0.00   0.00     0.00  -0.54   0.00     0.00   0.00   0.00
   6   1     0.39   0.00   0.00     0.00   0.26  -0.24     0.39   0.00   0.00
   7   1    -0.01   0.00   0.00     0.00  -0.07  -0.29    -0.50   0.00   0.00
   8   1    -0.58   0.00   0.00     0.00  -0.21   0.00     0.00   0.00   0.00
   9   6     0.27   0.00   0.00     0.00   0.19   0.11    -0.22   0.00   0.00
  10   6     0.01   0.00   0.00     0.00   0.00   0.16     0.21   0.00   0.00
  11   1     0.39   0.00   0.00     0.00   0.26   0.24    -0.39   0.00   0.00
  12   1    -0.01   0.00   0.00     0.00  -0.07   0.29     0.50   0.00   0.00
                     4                      5                      6
                    A1                     B1                     B2
 Frequencies --   554.8730               560.1715               671.5923
 Red. masses --     8.4053                 2.9412                 6.3917
 Frc consts  --     1.5247                 0.5438                 1.6985
 IR Inten    --     1.4164                 8.4297                 0.2472
 Raman Activ --     4.8232                 0.0160                 3.7362
 Depolar     --     0.6340                 0.7500                 0.7500
 Atom AN      X      Y      Z        X      Y      Z        X      Y      Z
   1   6     0.00   0.00  -0.31     0.30   0.00   0.00     0.00  -0.14   0.00
   2   6     0.00   0.21   0.07     0.01   0.00   0.00     0.00  -0.22  -0.23
   3   6     0.00   0.16   0.14    -0.13   0.00   0.00     0.00   0.24  -0.25
   4   6     0.00   0.00   0.37     0.19   0.00   0.00     0.00   0.15   0.00
   5   7     0.00   0.00  -0.46    -0.11   0.00   0.00     0.00  -0.02   0.00
   6   1     0.00   0.06   0.32    -0.37   0.00   0.00     0.00  -0.31  -0.08
   7   1     0.00   0.04  -0.08    -0.51   0.00   0.00     0.00   0.33  -0.09
   8   1     0.00   0.00   0.37     0.19   0.00   0.00     0.00  -0.26   0.00
   9   6     0.00  -0.21   0.07     0.01   0.00   0.00     0.00  -0.22   0.23
  10   6     0.00  -0.16   0.14    -0.13   0.00   0.00     0.00   0.24   0.25
  11   1     0.00  -0.06   0.32    -0.37   0.00   0.00     0.00  -0.31   0.08
  12   1     0.00  -0.04  -0.08    -0.51   0.00   0.00     0.00   0.33   0.09
                     7                      8                      9
                    B1                     B1                     A1
 Frequencies --   761.6204               815.6071               885.2657
 Red. masses --     2.7516                 1.4262                 6.1209
 Frc consts  --     0.9404                 0.5590                 2.8263
 IR Inten    --     1.1895               111.6436                 8.0891
 Raman Activ --     0.0299                 0.2462                11.6541
 Depolar     --     0.7500                 0.7500                 0.1627
 Atom AN      X      Y      Z        X      Y      Z        X      Y      Z
   1   6    -0.20   0.00   0.00     0.14   0.00   0.00     0.00   0.00   0.00
   2   6     0.12   0.00   0.00    -0.06   0.00   0.00     0.00  -0.17   0.09
   3   6    -0.17   0.00   0.00    -0.04   0.00   0.00     0.00  -0.28   0.17
   4   6     0.17   0.00   0.00    -0.07   0.00   0.00     0.00   0.00  -0.19
   5   7     0.02   0.00   0.00    -0.03   0.00   0.00     0.00   0.00  -0.34
   6   1     0.55   0.00   0.00     0.29   0.00   0.00     0.00  -0.14   0.01
   7   1    -0.14   0.00   0.00     0.42   0.00   0.00     0.00  -0.11   0.48
   8   1     0.46   0.00   0.00     0.66   0.00   0.00     0.00   0.00  -0.19
   9   6     0.12   0.00   0.00    -0.06   0.00   0.00     0.00   0.17   0.09
  10   6    -0.17   0.00   0.00    -0.04   0.00   0.00     0.00   0.28   0.17
  11   1     0.55   0.00   0.00     0.29   0.00   0.00     0.00   0.14   0.01
  12   1    -0.14   0.00   0.00     0.42   0.00   0.00     0.00   0.11   0.48
                    10                     11                     12
                    A2                     B1                     A1
 Frequencies --   906.3229               954.3123              1045.4868
 Red. masses --     1.2320                 1.3879                 5.6463
 Frc consts  --     0.5962                 0.7447                 3.6363
 IR Inten    --     0.0000                 9.8770                 5.2101
 Raman Activ --     2.7319                 1.2223                34.4663
 Depolar     --     0.7500                 0.7500                 0.1191
 Atom AN      X      Y      Z        X      Y      Z        X      Y      Z
   1   6     0.00   0.00   0.00    -0.07   0.00   0.00     0.00   0.00   0.11
   2   6    -0.09   0.00   0.00     0.10   0.00   0.00     0.00   0.36   0.13
   3   6    -0.05   0.00   0.00    -0.01   0.00   0.00     0.00  -0.07   0.01
   4   6     0.00   0.00   0.00    -0.10   0.00   0.00     0.00   0.00  -0.32
   5   7     0.00   0.00   0.00     0.02   0.00   0.00     0.00   0.00  -0.02
   6   1     0.64   0.00   0.00    -0.53   0.00   0.00     0.00   0.47  -0.03
   7   1     0.28   0.00   0.00     0.09   0.00   0.00     0.00  -0.09  -0.05
   8   1     0.00   0.00   0.00     0.62   0.00   0.00     0.00   0.00  -0.33
   9   6     0.09   0.00   0.00     0.10   0.00   0.00     0.00  -0.36   0.13
  10   6     0.05   0.00   0.00    -0.01   0.00   0.00     0.00   0.07   0.01
  11   1    -0.64   0.00   0.00    -0.53   0.00   0.00     0.00  -0.47  -0.03
  12   1    -0.28   0.00   0.00     0.09   0.00   0.00     0.00   0.09  -0.05
                    13                     14                     15
                    A2                     B1                     A1
 Frequencies --  1090.6792              1106.0149              1126.0255
 Red. masses --     1.3517                 1.2875                 2.2130
 Frc consts  --     0.9474                 0.9279                 1.6532
 IR Inten    --     0.0000                 1.3927                 1.1215
 Raman Activ --     0.9413                 0.4714                10.8122
 Depolar     --     0.7500                 0.7500                 0.1016
 Atom AN      X      Y      Z        X      Y      Z        X      Y      Z
   1   6     0.00   0.00   0.00    -0.01   0.00   0.00     0.00   0.00  -0.01
   2   6     0.06   0.00   0.00    -0.03   0.00   0.00     0.00  -0.04   0.08
   3   6    -0.11   0.00   0.00     0.09   0.00   0.00     0.00   0.17  -0.02
   4   6     0.00   0.00   0.00    -0.09   0.00   0.00     0.00   0.00  -0.19
   5   7     0.00   0.00   0.00     0.00   0.00   0.00     0.00   0.00  -0.02
   6   1    -0.28   0.00   0.00     0.21   0.00   0.00     0.00  -0.22   0.39
   7   1     0.64   0.00   0.00    -0.56   0.00   0.00     0.00   0.37   0.31
   8   1     0.00   0.00   0.00     0.50   0.00   0.00     0.00   0.00  -0.20
   9   6    -0.06   0.00   0.00    -0.03   0.00   0.00     0.00   0.04   0.08
  10   6     0.11   0.00   0.00     0.09   0.00   0.00     0.00  -0.17  -0.02
  11   1     0.28   0.00   0.00     0.21   0.00   0.00     0.00   0.22   0.39
  12   1    -0.64   0.00   0.00    -0.56   0.00   0.00     0.00  -0.37   0.31
                    16                     17                     18
                    B2                     B2                     A1
 Frequencies --  1169.3482              1195.8327              1295.8197
 Red. masses --     2.4942                 2.1916                 1.2365
 Frc consts  --     2.0094                 1.8465                 1.2233
 IR Inten    --     3.2496                42.9696                24.4680
 Raman Activ --     2.7607                 0.1567                 4.1157
 Depolar     --     0.7500                 0.7500                 0.2250
 Atom AN      X      Y      Z        X      Y      Z        X      Y      Z
   1   6     0.00   0.20   0.00     0.00  -0.10   0.00     0.00   0.00   0.07
   2   6     0.00  -0.12  -0.03     0.00   0.04  -0.16     0.00   0.01  -0.06
   3   6     0.00  -0.11  -0.01     0.00   0.02   0.14     0.00   0.05   0.03
   4   6     0.00   0.20   0.00     0.00  -0.07   0.00     0.00   0.00   0.02
   5   7     0.00   0.00   0.00     0.00  -0.02   0.00     0.00   0.00  -0.03
   6   1     0.00   0.02  -0.30     0.00   0.20  -0.46     0.00   0.22  -0.44
   7   1     0.00  -0.05   0.12     0.00   0.17   0.40     0.00   0.26   0.42
   8   1     0.00   0.81   0.00     0.00   0.08   0.00     0.00   0.00   0.03
   9   6     0.00  -0.12   0.03     0.00   0.04   0.16     0.00  -0.01  -0.06
  10   6     0.00  -0.11   0.01     0.00   0.02  -0.14     0.00  -0.05   0.03
  11   1     0.00   0.02   0.30     0.00   0.20   0.46     0.00  -0.22  -0.44
  12   1     0.00  -0.05  -0.12     0.00   0.17  -0.40     0.00  -0.26   0.42
                    19                     20                     21
                    B2                     A1                     B2
 Frequencies --  1309.7455              1381.4085              1463.8493
 Red. masses --     1.3087                 5.6514                 1.3808
 Frc consts  --     1.3227                 6.3540                 1.7433
 IR Inten    --     0.6935                31.3899                10.4110
 Raman Activ --     2.6275                16.7189                 0.5762
 Depolar     --     0.7500                 0.1753                 0.7500
 Atom AN      X      Y      Z        X      Y      Z        X      Y      Z
   1   6     0.00  -0.13   0.00     0.00   0.00  -0.51     0.00  -0.10   0.00
   2   6     0.00   0.05  -0.05     0.00   0.06  -0.06     0.00  -0.01   0.09
   3   6     0.00   0.01   0.01     0.00  -0.09   0.13     0.00   0.00  -0.03
   4   6     0.00   0.00   0.00     0.00   0.00  -0.06     0.00   0.09   0.00
   5   7     0.00   0.00   0.00     0.00   0.00   0.29     0.00   0.00   0.00
   6   1     0.00  -0.01   0.05     0.00   0.01   0.04     0.00   0.34  -0.52
   7   1     0.00  -0.24  -0.44     0.00   0.12   0.53     0.00  -0.10  -0.21
   8   1     0.00   0.68   0.00     0.00   0.00  -0.06     0.00  -0.29   0.00
   9   6     0.00   0.05   0.05     0.00  -0.06  -0.06     0.00  -0.01  -0.09
  10   6     0.00   0.01  -0.01     0.00   0.09   0.13     0.00   0.00   0.03
  11   1     0.00  -0.01  -0.05     0.00  -0.01   0.04     0.00   0.34   0.52
  12   1     0.00  -0.24   0.44     0.00  -0.12   0.53     0.00  -0.10   0.21
                    22                     23                     24
                    B2                     A1                     B2
 Frequencies --  1582.4009              1619.5606              1731.3209
 Red. masses --     2.0170                 1.8325                 4.1690
 Frc consts  --     2.9757                 2.8319                 7.3628
 IR Inten    --     1.8749                41.8333                31.0673
 Raman Activ --     0.1816                 3.5387                 4.1965
 Depolar     --     0.7500                 0.6544                 0.7500
 Atom AN      X      Y      Z        X      Y      Z        X      Y      Z
   1   6     0.00   0.12   0.00     0.00   0.00  -0.11     0.00  -0.17   0.00
   2   6     0.00  -0.07  -0.07     0.00  -0.08   0.11     0.00   0.14  -0.11
   3   6     0.00   0.04   0.16     0.00   0.08   0.05     0.00  -0.19  -0.03
   4   6     0.00   0.06   0.00     0.00   0.00  -0.07     0.00   0.35   0.00
   5   7     0.00   0.00   0.00     0.00   0.00   0.01     0.00   0.00   0.00
   6   1     0.00  -0.14   0.02     0.00   0.26  -0.49     0.00  -0.12   0.34
   7   1     0.00  -0.30  -0.42     0.00  -0.13  -0.36     0.00  -0.09   0.19
   8   1     0.00  -0.58   0.00     0.00   0.00  -0.09     0.00  -0.61   0.00
   9   6     0.00  -0.07   0.07     0.00   0.08   0.11     0.00   0.14   0.11
  10   6     0.00   0.04  -0.16     0.00  -0.08   0.05     0.00  -0.19   0.03
  11   1     0.00  -0.14  -0.02     0.00  -0.26  -0.49     0.00  -0.12  -0.34
  12   1     0.00  -0.30   0.42     0.00   0.13  -0.36     0.00  -0.09  -0.19
                    25                     26                     27
                    A1                     A1                     B2
 Frequencies --  1783.9488              3359.7554              3366.3644
 Red. masses --     4.7133                 1.0865                 1.0898
 Frc consts  --     8.8377                 7.2257                 7.2767
 IR Inten    --    45.1357                 2.7996                10.9942
 Raman Activ --    32.7810                25.9020               115.6664
 Depolar     --     0.6698                 0.5172                 0.7500
 Atom AN      X      Y      Z        X      Y      Z        X      Y      Z
   1   6     0.00   0.00   0.11     0.00   0.00   0.00     0.00   0.00   0.00
   2   6     0.00   0.02  -0.23     0.00  -0.02  -0.01     0.00  -0.02  -0.01
   3   6     0.00   0.11   0.29     0.00   0.04  -0.02     0.00   0.05  -0.03
   4   6     0.00   0.00  -0.16     0.00   0.00   0.03     0.00   0.00   0.00
   5   7     0.00   0.00   0.00     0.00   0.00   0.00     0.00   0.00   0.00
   6   1     0.00  -0.23   0.15     0.00   0.22   0.12     0.00   0.26   0.14
   7   1     0.00  -0.29  -0.40     0.00  -0.51   0.29     0.00  -0.56   0.31
   8   1     0.00   0.00  -0.19     0.00   0.00  -0.42     0.00   0.01   0.00
   9   6     0.00  -0.02  -0.23     0.00   0.02  -0.01     0.00  -0.02   0.01
  10   6     0.00  -0.11   0.29     0.00  -0.04  -0.02     0.00   0.05   0.03
  11   1     0.00   0.23   0.15     0.00  -0.22   0.12     0.00   0.26  -0.14
  12   1     0.00   0.29  -0.40     0.00   0.51   0.29     0.00  -0.56  -0.31
                    28                     29                     30
                    A1                     B2                     A1
 Frequencies --  3384.8139              3389.5252              3396.5785
 Red. masses --     1.0926                 1.0941                 1.0986
 Frc consts  --     7.3756                 7.4060                 7.4672
 IR Inten    --     9.3952                22.2405                12.2211
 Raman Activ --    85.8527                 8.8440               261.6633
 Depolar     --     0.5352                 0.7500                 0.1058
 Atom AN      X      Y      Z        X      Y      Z        X      Y      Z
   1   6     0.00   0.00   0.00     0.00   0.00   0.00     0.00   0.00   0.00
   2   6     0.00   0.04   0.03     0.00  -0.05  -0.03     0.00   0.02   0.02
   3   6     0.00   0.00  -0.01     0.00  -0.02   0.02     0.00   0.03  -0.02
   4   6     0.00   0.00   0.05     0.00   0.00   0.00     0.00   0.00  -0.06
   5   7     0.00   0.00   0.00     0.00   0.00   0.00     0.00   0.00   0.00
   6   1     0.00  -0.51  -0.29     0.00   0.56   0.32     0.00  -0.27  -0.16
   7   1     0.00  -0.04   0.03     0.00   0.25  -0.15     0.00  -0.33   0.19
   8   1     0.00   0.00  -0.56     0.00   0.00   0.00     0.00   0.00   0.71
   9   6     0.00  -0.04   0.03     0.00  -0.05   0.03     0.00  -0.02   0.02
  10   6     0.00   0.00  -0.01     0.00  -0.02  -0.02     0.00  -0.03  -0.02
  11   1     0.00   0.51  -0.29     0.00   0.56  -0.32     0.00   0.27  -0.16
  12   1     0.00   0.04   0.03     0.00   0.25   0.15     0.00   0.33   0.19
 -------------------
 - THERMOCHEMISTRY -
 -------------------
 TEMPERATURE   298.150 KELVIN.
 PRESSURE      1.00000 ATM.
 ATOM  1 HAS ATOMIC NUMBER  6 AND MASS  12.00000
 ATOM  2 HAS ATOMIC NUMBER  6 AND MASS  12.00000
 ATOM  3 HAS ATOMIC NUMBER  6 AND MASS  12.00000
 ATOM  4 HAS ATOMIC NUMBER  6 AND MASS  12.00000
 ATOM  5 HAS ATOMIC NUMBER  7 AND MASS  14.00307
 ATOM  6 HAS ATOMIC NUMBER  1 AND MASS   1.00783
 ATOM  7 HAS ATOMIC NUMBER  1 AND MASS   1.00783
 ATOM  8 HAS ATOMIC NUMBER  1 AND MASS   1.00783
 ATOM  9 HAS ATOMIC NUMBER  6 AND MASS  12.00000
 ATOM 10 HAS ATOMIC NUMBER  6 AND MASS  12.00000
 ATOM 11 HAS ATOMIC NUMBER  1 AND MASS   1.00783
 ATOM 12 HAS ATOMIC NUMBER  1 AND MASS   1.00783
 Molecular mass:    91.04220 amu.
 Principle axes and moments of inertia in atomic units:
                           1         2         3
     EIGENVALUES --   314.03938 615.97436 930.01373
           X            0.00000   0.00000   1.00000
           Y            0.00000   1.00000   0.00000
           Z            1.00000   0.00000   0.00000
 THIS MOLECULE IS AN ASYMMETRIC TOP.
 ROTATIONAL SYMMETRY NUMBER  2.
 ROTATIONAL TEMPERATURES (KELVIN)      0.27580     0.14061     0.09313
 ROTATIONAL CONSTANTS (GHZ)            5.74686     2.92990     1.94055
 ZERO-POINT VIBRATIONAL ENERGY     256980.8 (JOULES/MOL) 
                                   61.41988 (KCAL/MOL)
                                  0.0978788 (HARTREE/PARTICLE)
 WARNING-- EXPLICIT CONSIDERATION OF   5 DEGREES OF FREEDOM AS
           VIBRATIONS MAY CAUSE SIGNIFICANT ERROR
 VIBRATIONAL TEMPERATURES:    362.10   441.58   715.06   798.33   805.96
          (KELVIN)            966.27  1095.80  1173.47  1273.69  1303.99
                             1373.03  1504.21  1569.24  1591.30  1620.09
                             1682.42  1720.53  1864.38  1884.42  1987.53
                             2106.14  2276.71  2330.17  2490.97  2566.69
                             4833.91  4843.42  4869.96  4876.74  4886.89
 SUM OF THERMAL ENERGIES:    0.1028311 (HARTREE/PARTICLE)
 SUM OF HARTREE-FOCK AND THERMAL ENERGIES: -284.3154939 (HARTREE/PARTICLE)
                         E                  CV                 S
                     JOULES/MOL     JOULES/MOL-KELVIN   JOULES/MOL-KELVIN
 TOTAL               269983.071             78.635            297.920
 ELECTRONIC               0.000              0.000              0.000
 TRANSLATIONAL         3718.457             12.472            165.011
 ROTATIONAL            3718.457             12.472            105.905
 VIBRATIONAL         262546.157             53.691             27.004
 VIBRATION  1          2776.444              7.364              7.192
 VIBRATION  2          2916.365              6.948              5.769
 VIBRATION  3          3566.942              5.258              2.785
 VIBRATION  4          3808.731              4.724              2.235
 VIBRATION  5          3831.720              4.676              2.190
                         E                  CV                 S
                      KCAL/MOL        CAL/MOL-KELVIN    CAL/MOL-KELVIN
 TOTAL                   64.528             18.794             71.205
 ELECTRONIC               0.000              0.000              0.000
 TRANSLATIONAL            0.889              2.981             39.439
 ROTATIONAL               0.889              2.981             25.312
 VIBRATIONAL             62.750             12.832              6.454
 VIBRATION  1             0.664              1.760              1.719
 VIBRATION  2             0.697              1.661              1.379
 VIBRATION  3             0.853              1.257              0.666
 VIBRATION  4             0.910              1.129              0.534
 VIBRATION  5             0.916              1.117              0.523
                       Q            LOG10(Q)             LN(Q)
 TOTAL BOT       0.673504E-32        -32.171660        -75.080761
 TOTAL V=0       0.706581E+13         12.849162         28.583513
 VIB (BOT)       0.259823E-44        -44.585322       -102.661498
 VIB (BOT)  1    0.774875E+00         -0.110769         -0.255054
 VIB (BOT)  2    0.617216E+00         -0.209563         -0.482536
 VIB (BOT)  3    0.331578E+00         -0.479414         -1.103892
 VIB (BOT)  4    0.281503E+00         -0.550516         -1.267610
 VIB (BOT)  5    0.277411E+00         -0.556877         -1.282256
 VIB (V=0)       0.272584E+01          0.435500          1.002776
 VIB (V=0)  1    0.142219E+01          0.152957          0.352197
 VIB (V=0)  2    0.129433E+01          0.112044          0.257991
 VIB (V=0)  3    0.109995E+01          0.041374          0.095268
 VIB (V=0)  4    0.107380E+01          0.030923          0.071202
 VIB (V=0)  5    0.107180E+01          0.030114          0.069341
 ELECTRONIC      0.100000E+01          0.000000          0.000000
 TRANSLATIONAL   0.341448E+08          7.533325         17.346121
 ROTATIONAL      0.759167E+05          4.880337         11.237392
 ***** AXES RESTORED TO ORIGINAL SET *****
 -------------------------------------------------------------------
 Center     Atomic                   Forces (Hartrees/Bohr)
 Number     Number              X              Y              Z
 -------------------------------------------------------------------
    1          6          -0.000076263    0.000000000    0.000000000
    2          6          -0.000038083    0.000038339    0.000000000
    3          6          -0.000009414   -0.000162698    0.000000000
    4          6           0.000002418    0.000000000    0.000000000
    5          7           0.000073260    0.000000000    0.000000000
    6          1          -0.000020241   -0.000057780    0.000000000
    7          1           0.000049306   -0.000056821    0.000000000
    8          1           0.000037449    0.000000000    0.000000000
    9          6          -0.000038083   -0.000038339    0.000000000
   10          6          -0.000009414    0.000162698    0.000000000
   11          1          -0.000020241    0.000057780    0.000000000
   12          1           0.000049306    0.000056821    0.000000000
 -------------------------------------------------------------------
           MAX     0.000162698     RMS     0.000050102
 ------------------------------------------------------------------------
           Internal Coordinate Forces (Hartree/Bohr or radian)
 Cent Atom N1     Length/X     N2     Alpha/Y      N3      Beta/Z       J
 ------------------------------------------------------------------------
   1  C        -0.000076(   1)      0.000000(  13)      0.000000(  25)
   2  C        -0.000038(   2)      0.000038(  14)      0.000000(  26)
   3  C        -0.000009(   3)     -0.000163(  15)      0.000000(  27)
   4  C         0.000002(   4)      0.000000(  16)      0.000000(  28)
   5  N         0.000073(   5)      0.000000(  17)      0.000000(  29)
   6  H        -0.000020(   6)     -0.000058(  18)      0.000000(  30)
   7  H         0.000049(   7)     -0.000057(  19)      0.000000(  31)
   8  H         0.000037(   8)      0.000000(  20)      0.000000(  32)
   9  C        -0.000038(   9)     -0.000038(  21)      0.000000(  33)
  10  C        -0.000009(  10)      0.000163(  22)      0.000000(  34)
  11  H        -0.000020(  11)      0.000058(  23)      0.000000(  35)
  12  H         0.000049(  12)      0.000057(  24)      0.000000(  36)
 ------------------------------------------------------------------------
                  MAX     0.000162698     RMS     0.000050102
 FORCE CONSTANTS IN CARTESIAN COORDINATES (HARTREES/BOHR).
             1             2             3             4             5
   1  0.676374D+00
   2  0.000000D+00  0.576470D+00
   3  0.000000D+00  0.000000D+00  0.170262D+00
   4 -0.159063D+00  0.385531D-01  0.000000D+00  0.772370D+00
   5  0.552866D-01 -0.257315D+00  0.000000D+00  0.692587D-01  0.751367D+00
   6  0.000000D+00  0.000000D+00 -0.702407D-01  0.000000D+00  0.000000D+00
   7 -0.396546D-01  0.125261D+00  0.000000D+00 -0.380833D+00 -0.616445D-01
   8  0.570153D-01  0.528970D-01  0.000000D+00  0.428577D-01 -0.152268D+00
   9  0.000000D+00  0.000000D+00  0.180656D-02  0.000000D+00  0.000000D+00
  10  0.200455D-01  0.000000D+00  0.000000D+00 -0.306701D-01 -0.257277D-01
  11  0.000000D+00 -0.125469D+00  0.000000D+00 -0.117365D+00  0.564977D-01
  12  0.000000D+00  0.000000D+00 -0.554459D-02  0.000000D+00  0.000000D+00
  13 -0.309090D+00  0.000000D+00  0.000000D+00 -0.498303D-01  0.550320D-01
  14  0.000000D+00 -0.720062D-02  0.000000D+00  0.282356D-01 -0.830835D-02
  15  0.000000D+00  0.000000D+00 -0.494623D-01  0.000000D+00  0.000000D+00
  16  0.151088D-01  0.171311D-01  0.000000D+00 -0.150184D+00 -0.132570D+00
  17 -0.101437D-01 -0.196978D-01  0.000000D+00 -0.134951D+00 -0.304791D+00
  18  0.000000D+00  0.000000D+00  0.323738D-02  0.000000D+00  0.000000D+00
  19 -0.102713D-01  0.249450D-02  0.000000D+00 -0.108060D-01  0.311298D-01
  20 -0.234068D-02  0.270111D-02  0.000000D+00 -0.222522D-02  0.455055D-02
  21  0.000000D+00  0.000000D+00  0.791156D-02  0.000000D+00  0.000000D+00
  22  0.430211D-03  0.000000D+00  0.000000D+00  0.719090D-03 -0.340796D-02
  23  0.000000D+00 -0.970058D-03  0.000000D+00 -0.225834D-02 -0.566729D-02
  24  0.000000D+00  0.000000D+00 -0.684453D-03  0.000000D+00  0.000000D+00
  25 -0.159063D+00 -0.385531D-01  0.000000D+00  0.953329D-01 -0.245411D-01
  26 -0.552866D-01 -0.257315D+00  0.000000D+00  0.245411D-01 -0.498829D-01
  27  0.000000D+00  0.000000D+00 -0.702407D-01  0.000000D+00  0.000000D+00
  28 -0.396546D-01 -0.125261D+00  0.000000D+00 -0.849254D-01  0.397405D-01
  29 -0.570153D-01  0.528970D-01  0.000000D+00  0.559806D-01 -0.300374D-01
  30  0.000000D+00  0.000000D+00  0.180655D-02  0.000000D+00  0.000000D+00
  31  0.151088D-01 -0.171311D-01  0.000000D+00 -0.208419D-02 -0.360701D-02
  32  0.101437D-01 -0.196978D-01  0.000000D+00 -0.324345D-02 -0.432196D-02
  33  0.000000D+00  0.000000D+00  0.323738D-02  0.000000D+00  0.000000D+00
  34 -0.102713D-01 -0.249450D-02  0.000000D+00 -0.273472D-04  0.105069D-02
  35  0.234068D-02  0.270111D-02  0.000000D+00  0.615989D-03  0.175925D-03
  36  0.000000D+00  0.000000D+00  0.791156D-02  0.000000D+00  0.000000D+00
             6             7             8             9            10
   6  0.137606D+00
   7  0.000000D+00  0.773657D+00
   8  0.000000D+00 -0.360230D-01  0.820097D+00
   9 -0.724520D-01  0.000000D+00  0.000000D+00  0.176550D+00
  10  0.000000D+00 -0.217498D+00 -0.144049D+00  0.000000D+00  0.857593D+00
  11  0.000000D+00 -0.334817D-01 -0.309565D+00  0.000000D+00  0.000000D+00
  12  0.107130D-01  0.000000D+00  0.000000D+00 -0.760370D-01  0.000000D+00
  13  0.000000D+00  0.141234D-01 -0.135692D-01  0.000000D+00 -0.184867D-01
  14  0.000000D+00 -0.853227D-02 -0.648402D-02  0.000000D+00  0.000000D+00
  15  0.890523D-02  0.000000D+00  0.000000D+00  0.664991D-02  0.000000D+00
  16  0.000000D+00 -0.993062D-02 -0.343125D-01  0.000000D+00 -0.628678D-02
  17  0.000000D+00  0.235684D-02  0.521063D-02  0.000000D+00  0.477452D-03
  18 -0.361299D-01  0.000000D+00  0.000000D+00  0.111335D-02  0.000000D+00
  19  0.000000D+00 -0.147165D+00  0.129870D+00  0.000000D+00  0.160305D-01
  20  0.000000D+00  0.130248D+00 -0.305551D+00  0.000000D+00  0.191118D-01
  21  0.533139D-02  0.000000D+00  0.000000D+00 -0.490080D-01  0.000000D+00
  22  0.000000D+00 -0.119906D-01  0.345609D-02  0.000000D+00 -0.382303D+00
  23  0.000000D+00 -0.338264D-01  0.673226D-02  0.000000D+00  0.000000D+00
  24  0.749754D-02  0.000000D+00  0.000000D+00  0.188258D-02  0.000000D+00
  25  0.000000D+00 -0.849254D-01 -0.559806D-01  0.000000D+00 -0.306701D-01
  26  0.000000D+00 -0.397405D-01 -0.300374D-01  0.000000D+00  0.257277D-01
  27  0.611051D-02  0.000000D+00  0.000000D+00 -0.170511D-02  0.000000D+00
  28  0.000000D+00  0.107168D+00  0.476658D-01  0.000000D+00 -0.217498D+00
  29  0.000000D+00 -0.476658D-01 -0.771606D-01  0.000000D+00  0.144049D+00
  30 -0.170511D-02  0.000000D+00  0.000000D+00  0.169054D-02  0.000000D+00
  31  0.000000D+00 -0.133782D-02 -0.109435D-02  0.000000D+00 -0.628678D-02
  32  0.000000D+00 -0.154079D-02  0.230780D-03  0.000000D+00 -0.477451D-03
  33  0.508739D-02  0.000000D+00  0.000000D+00  0.102972D-02  0.000000D+00
  34  0.000000D+00 -0.161361D-02  0.416399D-02  0.000000D+00  0.160305D-01
  35  0.000000D+00  0.458904D-02 -0.410159D-02  0.000000D+00 -0.191118D-01
  36 -0.723649D-03  0.000000D+00  0.000000D+00  0.847977D-02  0.000000D+00
            11            12            13            14            15
  11  0.727527D+00
  12  0.000000D+00  0.147094D+00
  13  0.000000D+00  0.000000D+00  0.392304D+00
  14  0.100694D-01  0.000000D+00  0.000000D+00  0.298625D-01
  15  0.000000D+00 -0.161410D-02  0.000000D+00  0.000000D+00  0.260546D-01
  16  0.149252D-02  0.000000D+00  0.112596D-02  0.797172D-03  0.000000D+00
  17  0.205356D-02  0.000000D+00 -0.417568D-02 -0.138699D-02  0.000000D+00
  18  0.000000D+00  0.802191D-02  0.000000D+00  0.000000D+00 -0.329316D-02
  19 -0.164279D-01  0.000000D+00  0.205560D-02  0.110456D-03  0.000000D+00
  20 -0.189170D-01  0.000000D+00  0.770025D-03 -0.166773D-03  0.000000D+00
  21  0.000000D+00  0.624281D-02  0.000000D+00  0.000000D+00  0.560568D-03
  22  0.000000D+00  0.000000D+00  0.323430D-03  0.000000D+00  0.000000D+00
  23 -0.722647D-01  0.000000D+00  0.000000D+00 -0.389948D-04  0.000000D+00
  24  0.000000D+00 -0.378168D-01  0.000000D+00  0.000000D+00 -0.623324D-03
  25  0.117365D+00  0.000000D+00 -0.498303D-01 -0.282356D-01  0.000000D+00
  26  0.564977D-01  0.000000D+00 -0.550320D-01 -0.830836D-02  0.000000D+00
  27  0.000000D+00  0.107130D-01  0.000000D+00  0.000000D+00  0.890523D-02
  28  0.334817D-01  0.000000D+00  0.141234D-01  0.853227D-02  0.000000D+00
  29 -0.309565D+00  0.000000D+00  0.135692D-01 -0.648402D-02  0.000000D+00
  30  0.000000D+00 -0.760370D-01  0.000000D+00  0.000000D+00  0.664990D-02
  31 -0.149252D-02  0.000000D+00  0.112596D-02 -0.797172D-03  0.000000D+00
  32  0.205355D-02  0.000000D+00  0.417568D-02 -0.138698D-02  0.000000D+00
  33  0.000000D+00  0.802191D-02  0.000000D+00  0.000000D+00 -0.329316D-02
  34  0.164279D-01  0.000000D+00  0.205561D-02 -0.110455D-03  0.000000D+00
  35 -0.189170D-01  0.000000D+00 -0.770026D-03 -0.166772D-03  0.000000D+00
  36  0.000000D+00  0.624281D-02  0.000000D+00  0.000000D+00  0.560569D-03
            16            17            18            19            20
  16  0.152237D+00
  17  0.142888D+00  0.322336D+00
  18  0.000000D+00  0.000000D+00  0.270106D-01
  19  0.125407D-02 -0.394869D-03  0.000000D+00  0.148920D+00
  20  0.578632D-03  0.107574D-02  0.000000D+00 -0.141423D+00  0.320322D+00
  21  0.000000D+00  0.000000D+00 -0.521257D-02  0.000000D+00  0.000000D+00
  22 -0.719453D-03  0.170771D-03  0.000000D+00  0.940555D-03 -0.543806D-03
  23 -0.160852D-02  0.112840D-03  0.000000D+00  0.775925D-03  0.115181D-02
  24  0.000000D+00  0.000000D+00  0.608201D-03  0.000000D+00  0.000000D+00
  25 -0.208419D-02  0.324345D-02  0.000000D+00 -0.273472D-04 -0.615989D-03
  26  0.360701D-02 -0.432196D-02  0.000000D+00 -0.105069D-02  0.175925D-03
  27  0.000000D+00  0.000000D+00  0.508739D-02  0.000000D+00  0.000000D+00
  28 -0.133782D-02  0.154079D-02  0.000000D+00 -0.161361D-02 -0.458904D-02
  29  0.109435D-02  0.230780D-03  0.000000D+00 -0.416399D-02 -0.410159D-02
  30  0.000000D+00  0.000000D+00  0.102972D-02  0.000000D+00  0.000000D+00
  31  0.749855D-03 -0.987902D-03  0.000000D+00  0.673377D-04  0.854927D-04
  32  0.987902D-03 -0.797947D-03  0.000000D+00  0.239907D-04 -0.239945D-04
  33  0.000000D+00  0.000000D+00 -0.442457D-03  0.000000D+00  0.000000D+00
  34  0.673377D-04 -0.239907D-04  0.000000D+00  0.615348D-03  0.944075D-03
  35 -0.854927D-04 -0.239945D-04  0.000000D+00 -0.944075D-03 -0.121661D-02
  36  0.000000D+00  0.000000D+00 -0.103048D-02  0.000000D+00  0.000000D+00
            21            22            23            24            25
  21  0.326177D-01
  22  0.000000D+00  0.403651D+00
  23  0.000000D+00  0.000000D+00  0.686145D-01
  24 -0.484513D-02  0.000000D+00  0.000000D+00  0.288382D-01
  25  0.000000D+00  0.719087D-03  0.225834D-02  0.000000D+00  0.772370D+00
  26  0.000000D+00  0.340796D-02 -0.566729D-02  0.000000D+00 -0.692587D-01
  27 -0.723649D-03  0.000000D+00  0.000000D+00  0.749755D-02  0.000000D+00
  28  0.000000D+00 -0.119906D-01  0.338264D-01  0.000000D+00 -0.380833D+00
  29  0.000000D+00 -0.345609D-02  0.673226D-02  0.000000D+00 -0.428577D-01
  30  0.847977D-02  0.000000D+00  0.000000D+00  0.188258D-02  0.000000D+00
  31  0.000000D+00 -0.719453D-03  0.160852D-02  0.000000D+00 -0.150184D+00
  32  0.000000D+00 -0.170772D-03  0.112840D-03  0.000000D+00  0.134951D+00
  33 -0.103048D-02  0.000000D+00  0.000000D+00  0.608201D-03  0.000000D+00
  34  0.000000D+00  0.940556D-03 -0.775925D-03  0.000000D+00 -0.108060D-01
  35  0.000000D+00  0.543805D-03  0.115181D-02  0.000000D+00  0.222522D-02
  36 -0.324069D-03  0.000000D+00  0.000000D+00 -0.484513D-02  0.000000D+00
            26            27            28            29            30
  26  0.751367D+00
  27  0.000000D+00  0.137606D+00
  28  0.616445D-01  0.000000D+00  0.773657D+00
  29 -0.152268D+00  0.000000D+00  0.360230D-01  0.820097D+00
  30  0.000000D+00 -0.724520D-01  0.000000D+00  0.000000D+00  0.176550D+00
  31  0.132570D+00  0.000000D+00 -0.993062D-02  0.343125D-01  0.000000D+00
  32 -0.304791D+00  0.000000D+00 -0.235684D-02  0.521063D-02  0.000000D+00
  33  0.000000D+00 -0.361299D-01  0.000000D+00  0.000000D+00  0.111335D-02
  34 -0.311298D-01  0.000000D+00 -0.147165D+00 -0.129870D+00  0.000000D+00
  35  0.455055D-02  0.000000D+00 -0.130248D+00 -0.305551D+00  0.000000D+00
  36  0.000000D+00  0.533139D-02  0.000000D+00  0.000000D+00 -0.490080D-01
            31            32            33            34            35
  31  0.152237D+00
  32 -0.142888D+00  0.322336D+00
  33  0.000000D+00  0.000000D+00  0.270106D-01
  34  0.125407D-02  0.394869D-03  0.000000D+00  0.148920D+00
  35 -0.578632D-03  0.107574D-02  0.000000D+00  0.141423D+00  0.320322D+00
  36  0.000000D+00  0.000000D+00 -0.521257D-02  0.000000D+00  0.000000D+00
            36
  36  0.326177D-01
 FORCE CONSTANTS IN INTERNAL COORDINATES (ATOMIC UNITS).
             1             2             3             4             5
   1  0.676374D+00
   2 -0.159063D+00  0.772370D+00
   3 -0.396546D-01 -0.380833D+00  0.773657D+00
   4  0.200455D-01 -0.306701D-01 -0.217498D+00  0.857593D+00
   5 -0.309090D+00 -0.498303D-01  0.141234D-01 -0.184867D-01  0.392304D+00
   6  0.151088D-01 -0.150184D+00 -0.993062D-02 -0.628678D-02  0.112596D-02
   7 -0.102713D-01 -0.108060D-01 -0.147165D+00  0.160305D-01  0.205560D-02
   8  0.430211D-03  0.719090D-03 -0.119906D-01 -0.382303D+00  0.323430D-03
   9 -0.159063D+00  0.953329D-01 -0.849254D-01 -0.306701D-01 -0.498303D-01
  10 -0.396546D-01 -0.849254D-01  0.107168D+00 -0.217498D+00  0.141234D-01
  11  0.151088D-01 -0.208419D-02 -0.133782D-02 -0.628678D-02  0.112596D-02
  12 -0.102713D-01 -0.273472D-04 -0.161361D-02  0.160305D-01  0.205561D-02
  13  0.000000D+00  0.385531D-01  0.125261D+00  0.000000D+00  0.000000D+00
  14  0.552866D-01  0.692587D-01 -0.616445D-01 -0.257277D-01  0.550320D-01
  15  0.570153D-01  0.428577D-01 -0.360230D-01 -0.144049D+00 -0.135692D-01
  16  0.000000D+00 -0.117365D+00 -0.334817D-01  0.000000D+00  0.000000D+00
  17  0.000000D+00  0.282356D-01 -0.853227D-02  0.000000D+00  0.000000D+00
  18 -0.101437D-01 -0.134951D+00  0.235684D-02  0.477452D-03 -0.417568D-02
  19 -0.234068D-02 -0.222522D-02  0.130248D+00  0.191118D-01  0.770025D-03
  20  0.000000D+00 -0.225834D-02 -0.338264D-01  0.000000D+00  0.000000D+00
  21 -0.552866D-01  0.245411D-01 -0.397405D-01  0.257277D-01 -0.550320D-01
  22 -0.570153D-01  0.559806D-01 -0.476658D-01  0.144049D+00  0.135692D-01
  23  0.101437D-01 -0.324345D-02 -0.154079D-02 -0.477451D-03  0.417568D-02
  24  0.234068D-02  0.615989D-03  0.458904D-02 -0.191118D-01 -0.770026D-03
  25  0.000000D+00  0.000000D+00  0.000000D+00  0.000000D+00  0.000000D+00
  26  0.000000D+00  0.000000D+00  0.000000D+00  0.000000D+00  0.000000D+00
  27  0.000000D+00  0.000000D+00  0.000000D+00  0.000000D+00  0.000000D+00
  28  0.000000D+00  0.000000D+00  0.000000D+00  0.000000D+00  0.000000D+00
  29  0.000000D+00  0.000000D+00  0.000000D+00  0.000000D+00  0.000000D+00
  30  0.000000D+00  0.000000D+00  0.000000D+00  0.000000D+00  0.000000D+00
  31  0.000000D+00  0.000000D+00  0.000000D+00  0.000000D+00  0.000000D+00
  32  0.000000D+00  0.000000D+00  0.000000D+00  0.000000D+00  0.000000D+00
  33  0.000000D+00  0.000000D+00  0.000000D+00  0.000000D+00  0.000000D+00
  34  0.000000D+00  0.000000D+00  0.000000D+00  0.000000D+00  0.000000D+00
  35  0.000000D+00  0.000000D+00  0.000000D+00  0.000000D+00  0.000000D+00
  36  0.000000D+00  0.000000D+00  0.000000D+00  0.000000D+00  0.000000D+00
             6             7             8             9            10
   6  0.152237D+00
   7  0.125407D-02  0.148920D+00
   8 -0.719453D-03  0.940555D-03  0.403651D+00
   9 -0.208419D-02 -0.273472D-04  0.719087D-03  0.772370D+00
  10 -0.133782D-02 -0.161361D-02 -0.119906D-01 -0.380833D+00  0.773657D+00
  11  0.749855D-03  0.673377D-04 -0.719453D-03 -0.150184D+00 -0.993062D-02
  12  0.673377D-04  0.615348D-03  0.940556D-03 -0.108060D-01 -0.147165D+00
  13  0.171311D-01  0.249450D-02  0.000000D+00 -0.385531D-01 -0.125261D+00
  14 -0.132570D+00  0.311298D-01 -0.340796D-02 -0.245411D-01  0.397405D-01
  15 -0.343125D-01  0.129870D+00  0.345609D-02 -0.559806D-01  0.476658D-01
  16  0.149252D-02 -0.164279D-01  0.000000D+00  0.117365D+00  0.334817D-01
  17  0.797172D-03  0.110456D-03  0.000000D+00 -0.282356D-01  0.853227D-02
  18  0.142888D+00 -0.394869D-03  0.170771D-03  0.324345D-02  0.154079D-02
  19  0.578632D-03 -0.141423D+00 -0.543806D-03 -0.615989D-03 -0.458904D-02
  20 -0.160852D-02  0.775925D-03  0.000000D+00  0.225834D-02  0.338264D-01
  21  0.360701D-02 -0.105069D-02  0.340796D-02 -0.692587D-01  0.616445D-01
  22  0.109435D-02 -0.416399D-02 -0.345609D-02 -0.428577D-01  0.360230D-01
  23  0.987902D-03  0.239907D-04 -0.170772D-03  0.134951D+00 -0.235684D-02
  24 -0.854927D-04 -0.944075D-03  0.543805D-03  0.222522D-02 -0.130248D+00
  25  0.000000D+00  0.000000D+00  0.000000D+00  0.000000D+00  0.000000D+00
  26  0.000000D+00  0.000000D+00  0.000000D+00  0.000000D+00  0.000000D+00
  27  0.000000D+00  0.000000D+00  0.000000D+00  0.000000D+00  0.000000D+00
  28  0.000000D+00  0.000000D+00  0.000000D+00  0.000000D+00  0.000000D+00
  29  0.000000D+00  0.000000D+00  0.000000D+00  0.000000D+00  0.000000D+00
  30  0.000000D+00  0.000000D+00  0.000000D+00  0.000000D+00  0.000000D+00
  31  0.000000D+00  0.000000D+00  0.000000D+00  0.000000D+00  0.000000D+00
  32  0.000000D+00  0.000000D+00  0.000000D+00  0.000000D+00  0.000000D+00
  33  0.000000D+00  0.000000D+00  0.000000D+00  0.000000D+00  0.000000D+00
  34  0.000000D+00  0.000000D+00  0.000000D+00  0.000000D+00  0.000000D+00
  35  0.000000D+00  0.000000D+00  0.000000D+00  0.000000D+00  0.000000D+00
  36  0.000000D+00  0.000000D+00  0.000000D+00  0.000000D+00  0.000000D+00
            11            12            13            14            15
  11  0.152237D+00
  12  0.125407D-02  0.148920D+00
  13 -0.171311D-01 -0.249450D-02  0.576470D+00
  14 -0.360701D-02  0.105069D-02 -0.257315D+00  0.751367D+00
  15 -0.109435D-02  0.416399D-02  0.528970D-01 -0.152268D+00  0.820097D+00
  16 -0.149252D-02  0.164279D-01 -0.125469D+00  0.564977D-01 -0.309565D+00
  17 -0.797172D-03 -0.110455D-03 -0.720062D-02 -0.830835D-02 -0.648402D-02
  18 -0.987902D-03 -0.239907D-04 -0.196978D-01 -0.304791D+00  0.521063D-02
  19  0.854927D-04  0.944075D-03  0.270111D-02  0.455055D-02 -0.305551D+00
  20  0.160852D-02 -0.775925D-03 -0.970058D-03 -0.566729D-02  0.673226D-02
  21  0.132570D+00 -0.311298D-01 -0.257315D+00 -0.498829D-01 -0.300374D-01
  22  0.343125D-01 -0.129870D+00  0.528970D-01 -0.300374D-01 -0.771606D-01
  23 -0.142888D+00  0.394869D-03 -0.196978D-01 -0.432196D-02  0.230780D-03
  24 -0.578632D-03  0.141423D+00  0.270111D-02  0.175925D-03 -0.410159D-02
  25  0.000000D+00  0.000000D+00  0.000000D+00  0.000000D+00  0.000000D+00
  26  0.000000D+00  0.000000D+00  0.000000D+00  0.000000D+00  0.000000D+00
  27  0.000000D+00  0.000000D+00  0.000000D+00  0.000000D+00  0.000000D+00
  28  0.000000D+00  0.000000D+00  0.000000D+00  0.000000D+00  0.000000D+00
  29  0.000000D+00  0.000000D+00  0.000000D+00  0.000000D+00  0.000000D+00
  30  0.000000D+00  0.000000D+00  0.000000D+00  0.000000D+00  0.000000D+00
  31  0.000000D+00  0.000000D+00  0.000000D+00  0.000000D+00  0.000000D+00
  32  0.000000D+00  0.000000D+00  0.000000D+00  0.000000D+00  0.000000D+00
  33  0.000000D+00  0.000000D+00  0.000000D+00  0.000000D+00  0.000000D+00
  34  0.000000D+00  0.000000D+00  0.000000D+00  0.000000D+00  0.000000D+00
  35  0.000000D+00  0.000000D+00  0.000000D+00  0.000000D+00  0.000000D+00
  36  0.000000D+00  0.000000D+00  0.000000D+00  0.000000D+00  0.000000D+00
            16            17            18            19            20
  16  0.727527D+00
  17  0.100694D-01  0.298625D-01
  18  0.205356D-02 -0.138699D-02  0.322336D+00
  19 -0.189170D-01 -0.166773D-03  0.107574D-02  0.320322D+00
  20 -0.722647D-01 -0.389948D-04  0.112840D-03  0.115181D-02  0.686145D-01
  21  0.564977D-01 -0.830836D-02 -0.432196D-02  0.175925D-03 -0.566729D-02
  22 -0.309565D+00 -0.648402D-02  0.230780D-03 -0.410159D-02  0.673226D-02
  23  0.205355D-02 -0.138698D-02 -0.797947D-03 -0.239945D-04  0.112840D-03
  24 -0.189170D-01 -0.166772D-03 -0.239945D-04 -0.121661D-02  0.115181D-02
  25  0.000000D+00  0.000000D+00  0.000000D+00  0.000000D+00  0.000000D+00
  26  0.000000D+00  0.000000D+00  0.000000D+00  0.000000D+00  0.000000D+00
  27  0.000000D+00  0.000000D+00  0.000000D+00  0.000000D+00  0.000000D+00
  28  0.000000D+00  0.000000D+00  0.000000D+00  0.000000D+00  0.000000D+00
  29  0.000000D+00  0.000000D+00  0.000000D+00  0.000000D+00  0.000000D+00
  30  0.000000D+00  0.000000D+00  0.000000D+00  0.000000D+00  0.000000D+00
  31  0.000000D+00  0.000000D+00  0.000000D+00  0.000000D+00  0.000000D+00
  32  0.000000D+00  0.000000D+00  0.000000D+00  0.000000D+00  0.000000D+00
  33  0.000000D+00  0.000000D+00  0.000000D+00  0.000000D+00  0.000000D+00
  34  0.000000D+00  0.000000D+00  0.000000D+00  0.000000D+00  0.000000D+00
  35  0.000000D+00  0.000000D+00  0.000000D+00  0.000000D+00  0.000000D+00
  36  0.000000D+00  0.000000D+00  0.000000D+00  0.000000D+00  0.000000D+00
            21            22            23            24            25
  21  0.751367D+00
  22 -0.152268D+00  0.820097D+00
  23 -0.304791D+00  0.521063D-02  0.322336D+00
  24  0.455055D-02 -0.305551D+00  0.107574D-02  0.320322D+00
  25  0.000000D+00  0.000000D+00  0.000000D+00  0.000000D+00  0.170262D+00
  26  0.000000D+00  0.000000D+00  0.000000D+00  0.000000D+00 -0.702407D-01
  27  0.000000D+00  0.000000D+00  0.000000D+00  0.000000D+00  0.180656D-02
  28  0.000000D+00  0.000000D+00  0.000000D+00  0.000000D+00 -0.554459D-02
  29  0.000000D+00  0.000000D+00  0.000000D+00  0.000000D+00 -0.494623D-01
  30  0.000000D+00  0.000000D+00  0.000000D+00  0.000000D+00  0.323738D-02
  31  0.000000D+00  0.000000D+00  0.000000D+00  0.000000D+00  0.791156D-02
  32  0.000000D+00  0.000000D+00  0.000000D+00  0.000000D+00 -0.684453D-03
  33  0.000000D+00  0.000000D+00  0.000000D+00  0.000000D+00 -0.702407D-01
  34  0.000000D+00  0.000000D+00  0.000000D+00  0.000000D+00  0.180655D-02
  35  0.000000D+00  0.000000D+00  0.000000D+00  0.000000D+00  0.323738D-02
  36  0.000000D+00  0.000000D+00  0.000000D+00  0.000000D+00  0.791156D-02
            26            27            28            29            30
  26  0.137606D+00
  27 -0.724520D-01  0.176550D+00
  28  0.107130D-01 -0.760370D-01  0.147094D+00
  29  0.890523D-02  0.664991D-02 -0.161410D-02  0.260546D-01
  30 -0.361299D-01  0.111335D-02  0.802191D-02 -0.329316D-02  0.270106D-01
  31  0.533139D-02 -0.490080D-01  0.624281D-02  0.560568D-03 -0.521257D-02
  32  0.749754D-02  0.188258D-02 -0.378168D-01 -0.623324D-03  0.608201D-03
  33  0.611051D-02 -0.170511D-02  0.107130D-01  0.890523D-02  0.508739D-02
  34 -0.170511D-02  0.169054D-02 -0.760370D-01  0.664990D-02  0.102972D-02
  35  0.508739D-02  0.102972D-02  0.802191D-02 -0.329316D-02 -0.442457D-03
  36 -0.723649D-03  0.847977D-02  0.624281D-02  0.560569D-03 -0.103048D-02
            31            32            33            34            35
  31  0.326177D-01
  32 -0.484513D-02  0.288382D-01
  33 -0.723649D-03  0.749755D-02  0.137606D+00
  34  0.847977D-02  0.188258D-02 -0.724520D-01  0.176550D+00
  35 -0.103048D-02  0.608201D-03 -0.361299D-01  0.111335D-02  0.270106D-01
  36 -0.324069D-03 -0.484513D-02  0.533139D-02 -0.490080D-01 -0.521257D-02
            36
  36  0.326177D-01
 GradGradGradGradGradGradGradGradGradGradGradGradGradGradGradGradGradGrad
 Berny optimization.
 No z-matrix variables hence no action by Optmz.
 GradGradGradGradGradGradGradGradGradGradGradGradGradGradGradGradGradGrad
 Copying SCF densities to generalized density rwf, ISCF=0 IROHF=0.

 **********************************************************************

            Population analysis using the SCF density.

 **********************************************************************

 ORBITAL SYMMETRIES.
       OCCUPIED  (A1) (A1) (A1) (B2) (B2) (A1) (A1) (A1) (A1) (B2)
                 (A1) (B2) (A1) (A1) (A1) (B2) (B2) (A1) (B1) (A1)
                 (B2) (B1) (A2) (B1)
       VIRTUAL   (B2) (A2) (B1) (A1) (B2) (A1) (A1) (B2) (B1) (A1)
                 (A1) (B2) (B2) (A1) (B2) (A1) (A1) (B1) (B2) (A1)
                 (A2) (B1) (A1) (B2) (A1) (A2) (B2) (B1) (A1) (B1)
                 (B1) (B2) (A1) (B2) (A1) (B2) (A1) (A1) (B2) (B2)
                 (A1) (A1) (B2) (A1) (B2) (A2) (A1) (B1) (B2) (B1)
                 (A1) (A2) (B1) (A2) (A2) (A1) (B2) (A1) (A1) (A1)
                 (B2) (B1) (A1) (B2) (A1) (B2) (A2) (A1) (B1) (B2)
                 (A2) (B1) (B1) (A1) (B2) (A1) (A2) (A1) (B2) (A1)
                 (B2) (A1) (B2) (A1) (A1) (A1) (B2) (A1) (B2) (A1)
                 (A1)
  THE ELECTRONIC STATE IS 1-A1.
 Alpha  occ. eigenvalues --  -15.66312 -11.29680 -11.24745 -11.24743 -11.24086
 Alpha  occ. eigenvalues --  -11.24086 -11.22224  -1.22751  -1.12447  -1.02772
 Alpha  occ. eigenvalues --   -0.96728  -0.84010  -0.79735  -0.69836  -0.64024
 Alpha  occ. eigenvalues --   -0.63859  -0.59866  -0.58174  -0.56271  -0.51330
 Alpha  occ. eigenvalues --   -0.50723  -0.46247  -0.35120  -0.29495
 Alpha virt. eigenvalues --    0.03011   0.13445   0.16166   0.23502   0.28408
 Alpha virt. eigenvalues --    0.30086   0.32825   0.33603   0.36653   0.43279
 Alpha virt. eigenvalues --    0.44911   0.47101   0.52685   0.52995   0.66971
 Alpha virt. eigenvalues --    0.72071   0.73842   0.74141   0.76957   0.80972
 Alpha virt. eigenvalues --    0.81806   0.81973   0.82935   0.83538   0.83714
 Alpha virt. eigenvalues --    0.90084   0.90302   0.90797   0.91103   0.99498
 Alpha virt. eigenvalues --    1.00952   1.03916   1.07568   1.10707   1.11754
 Alpha virt. eigenvalues --    1.12035   1.15373   1.18091   1.20441   1.24957
 Alpha virt. eigenvalues --    1.25336   1.32277   1.34903   1.44036   1.45075
 Alpha virt. eigenvalues --    1.49139   1.55667   1.59138   1.70282   1.70853
 Alpha virt. eigenvalues --    1.72127   1.72986   1.76159   1.78695   1.99411
 Alpha virt. eigenvalues --    2.01901   2.06815   2.08450   2.16814   2.17529
 Alpha virt. eigenvalues --    2.22754   2.27047   2.30035   2.30455   2.39449
 Alpha virt. eigenvalues --    2.44745   2.45952   2.47581   2.56842   2.57736
 Alpha virt. eigenvalues --    2.62993   2.64034   2.81484   2.82292   2.90532
 Alpha virt. eigenvalues --    2.93817   3.00404   3.05657   3.07144   3.09144
 Alpha virt. eigenvalues --    3.21198   3.24113   3.46924   3.81008   4.07163
 Alpha virt. eigenvalues --    4.50896   4.53634   4.54779   4.74614   4.77507
 Alpha virt. eigenvalues --    5.11383
          Condensed to atoms (all electrons):
              1          2          3          4          5          6
  1  C    4.576487   0.525608  -0.031653  -0.026848   0.280039  -0.040800
  2  C    0.525608   4.987199   0.558194  -0.056258  -0.063338   0.387739
  3  C   -0.031653   0.558194   4.822924   0.557902   0.002880  -0.024446
  4  C   -0.026848  -0.056258   0.557902   4.933130   0.000165   0.002408
  5  N    0.280039  -0.063338   0.002880   0.000165   7.074555  -0.004702
  6  H   -0.040800   0.387739  -0.024446   0.002408  -0.004702   0.461818
  7  H    0.002014  -0.032523   0.382509  -0.028184  -0.000060  -0.001628
  8  H    0.000401   0.002534  -0.030037   0.385325   0.000003  -0.000107
  9  C    0.525608  -0.012205  -0.039729  -0.056258  -0.063338   0.002489
 10  C   -0.031653  -0.039729  -0.038380   0.557902   0.002880   0.000056
 11  H   -0.040800   0.002489   0.000056   0.002408  -0.004702  -0.000085
 12  H    0.002014   0.000564   0.002561  -0.028184  -0.000060   0.000011
              7          8          9         10         11         12
  1  C    0.002014   0.000401   0.525608  -0.031653  -0.040800   0.002014
  2  C   -0.032523   0.002534  -0.012205  -0.039729   0.002489   0.000564
  3  C    0.382509  -0.030037  -0.039729  -0.038380   0.000056   0.002561
  4  C   -0.028184   0.385325  -0.056258   0.557902   0.002408  -0.028184
  5  N   -0.000060   0.000003  -0.063338   0.002880  -0.004702  -0.000060
  6  H   -0.001628  -0.000107   0.002489   0.000056  -0.000085   0.000011
  7  H    0.467240  -0.001663   0.000564   0.002561   0.000011  -0.000116
  8  H   -0.001663   0.471497   0.002534  -0.030037  -0.000107  -0.001663
  9  C    0.000564   0.002534   4.987199   0.558194   0.387739  -0.032523
 10  C    0.002561  -0.030037   0.558194   4.822924  -0.024446   0.382509
 11  H    0.000011  -0.000107   0.387739  -0.024446   0.461818  -0.001628
 12  H   -0.000116  -0.001663  -0.032523   0.382509  -0.001628   0.467240
 Total atomic charges:
              1
  1  C    0.259584
  2  C   -0.260275
  3  C   -0.162783
  4  C   -0.243506
  5  N   -0.224323
  6  H    0.217246
  7  H    0.209274
  8  H    0.201320
  9  C   -0.260275
 10  C   -0.162783
 11  H    0.217246
 12  H    0.209274
 Sum of Mulliken charges=   0.00000
 Atomic charges with hydrogens summed into heavy atoms:
              1
  1  C    0.259584
  2  C   -0.043029
  3  C    0.046491
  4  C   -0.042187
  5  N   -0.224323
  6  H    0.000000
  7  H    0.000000
  8  H    0.000000
  9  C   -0.043029
 10  C    0.046491
 11  H    0.000000
 12  H    0.000000
 Sum of Mulliken charges=   0.00000
 Electronic spatial extent (au):  <R**2>=   613.4399
 Charge=     0.0000 electrons
 Dipole moment (Debye):
    X=     0.0000    Y=     0.0000    Z=    -1.2917  Tot=     1.2917
 Quadrupole moment (Debye-Ang):
   XX=   -45.2104   YY=   -34.0642   ZZ=   -42.1156
   XY=     0.0000   XZ=     0.0000   YZ=     0.0000
 Octapole moment (Debye-Ang**2):
  XXX=     0.0000  YYY=     0.0000  ZZZ=   -23.4156  XYY=     0.0000
  XXY=     0.0000  XXZ=     0.4359  XZZ=     0.0000  YZZ=     0.0000
  YYZ=     1.4166  XYZ=     0.0000
 Hexadecapole moment (Debye-Ang**3):
 XXXX=   -47.7328 YYYY=  -260.0980 ZZZZ=  -533.9016 XXXY=     0.0000
 XXXZ=     0.0000 YYYX=     0.0000 YYYZ=     0.0000 ZZZX=     0.0000
 ZZZY=     0.0000 XXYY=   -62.7551 XXZZ=  -101.6010 YYZZ=  -111.2230
 XXYZ=     0.0000 YYXZ=     0.0000 ZZXY=     0.0000
 N-N= 2.530203958328D+02 E-N=-1.168993673484D+03  KE= 2.841015163427D+02
 Symmetry A1   KE= 1.966603883764D+02
 Symmetry A2   KE= 2.100492316442D+00
 Symmetry B1   KE= 7.350113495140D+00
 Symmetry B2   KE= 7.799052215479D+01
  Exact polarizability:  22.839   0.000  69.633   0.000   0.000  79.716
 Approx polarizability:  25.785   0.000  68.264   0.000   0.000  77.225
 1\1\GINC-POLLUX.CHEM.UMN.EDU\FREQ\RHF\6-31G(D)\C6H5N1\BASMITH\15-Jul-1
 997\0\\#RHF/6-31G* SCF=(TIGHT,DIRECT) FREQ\\Phenylnitrene, 1A1\\0,1\C,
 0,1.0438796005,0.,0.\C,0,0.3440309349,1.2156037483,0.\C,0,-1.037542615
 ,1.1911406688,0.\C,0,-1.7449221652,0.,0.\N,0,2.3885675917,0.,0.\H,0,0.
 8785725292,2.146842239,0.\H,0,-1.5649537949,2.1287177589,0.\H,0,-2.818
 8150619,0.,0.\C,0,0.3440309349,-1.2156037483,0.\C,0,-1.037542615,-1.19
 11406688,0.\H,0,0.8785725292,-2.146842239,0.\H,0,-1.5649537949,-2.1287
 177589,0.\\Version=SGI-G92/DFT-RevG.2\State=1-A1\HF=-284.418325\RMSD=1
 .192e-09\RMSF=5.010e-05\Dipole=-0.5081746,0.,0.\DipoleDeriv=0.8899584,
 0.,0.,0.,0.1156544,0.,0.,0.,0.2939152,-0.3988669,-0.2314036,0.,0.25454
 21,0.0944338,0.,0.,0.,-0.2918314,0.3164952,0.2869212,0.,-0.0091356,0.3
 887948,0.,0.,0.,-0.031152,-0.0369545,0.,0.,0.,-0.6616818,0.,0.,0.,-0.2
 381589,-0.6617672,0.,0.,0.,-0.2560676,0.,0.,0.,-0.142478,0.0215915,-0.
 070961,0.,-0.0567434,-0.0435199,0.,0.,0.,0.1685683,0.0256726,0.0805795
 ,0.,0.0816383,-0.0689701,0.,0.,0.,0.1212128,-0.1210215,0.,0.,0.,0.0606
 179,0.,0.,0.,0.1531265,-0.3988669,0.2314037,0.,-0.2545421,0.0944338,0.
 ,0.,0.,-0.2918314,0.3164952,-0.2869213,0.,0.0091356,0.3887947,0.,0.,0.
 ,-0.0311519,0.0215915,0.070961,0.,0.0567434,-0.0435199,0.,0.,0.,0.1685
 683,0.0256726,-0.0805794,0.,-0.0816383,-0.06897,0.,0.,0.,0.1212128\Pol
 ar=79.7157155,0.,69.6333381,0.,0.,22.838708\PolarDeriv=20.3973008,0.00
 00053,1.6014346,0.,0.,0.9885466,-0.0000055,-0.8557638,-0.0000005,0.,0.
 ,0.0000002,0.,0.,0.,3.0922504,0.,0.,-5.7844628,-1.2340424,2.0914916,0.
 ,0.,0.0809674,6.5702256,-0.675042,0.0975883,0.,0.,0.4533308,0.,0.,0.,1
 .0972093,3.5498907,0.,4.4531699,0.4907895,-2.6628077,0.,0.,-0.003369,2
 .24765,1.4560608,0.6460141,0.,0.,0.003253,0.,0.,0.,-1.3690005,2.262508
 5,0.,-4.7958409,0.0000007,0.0706079,0.,0.,-0.217786,0.0000009,-0.79473
 19,-0.000002,0.,0.,0.0000001,0.,0.,0.,-4.5607599,0.0000002,0.,-0.53719
 76,-0.0000028,0.2136603,0.,0.,-0.540426,0.0000025,3.192956,0.0000005,0
 .,0.,-0.0000001,0.,0.,0.,3.49439,0.0000002,0.,2.0352606,2.581418,2.884
 9129,0.,0.,0.1916181,1.5138449,3.1836719,7.6696129,0.,0.,0.2632998,0.,
 0.,0.,0.6412961,1.2118336,0.,-2.5247598,2.9490046,-3.042651,0.,0.,-0.1
 970829,2.3586896,-3.9016602,7.794989,0.,0.,0.3676027,0.,0.,0.,-0.77798
 44,1.3010107,0.,-11.4226772,-0.0000002,-0.4275969,0.,0.,-0.3746015,-0.
 0000008,-1.6685196,0.,0.,0.,0.,0.,0.,0.,-1.2089191,0.0000003,0.,-5.784
 4611,1.2340391,2.0914959,0.,0.,0.0809673,-6.5702224,-0.6750439,-0.0975
 918,0.,0.,-0.4533308,0.,0.,0.,1.0972087,-3.5498915,0.,4.4531675,-0.490
 7895,-2.6628127,0.,0.,-0.0033691,-2.2476533,1.4560623,-0.6460077,0.,0.
 ,-0.0032531,0.,0.,0.,-1.3689994,-2.2625076,0.,2.0352605,-2.5814185,2.8
 849142,0.,0.,0.1916182,-1.5138448,3.1836712,-7.6696125,0.,0.,-0.263299
 8,0.,0.,0.,0.6412961,-1.2118337,0.,-2.5247595,-2.9490042,-3.0426497,0.
 ,0.,-0.1970828,-2.3586892,-3.9016606,-7.7949897,0.,0.,-0.3676026,0.,0.
 ,0.,-0.7779847,-1.301011,0.\HyperPolar=-169.5665697,-0.0000038,25.3718
 711,-0.0000058,0.,0.,0.,-1.1604083,0.0000005,0.\PG=C02V [C2(H1C1C1N1),
 SGV(C4H4)]\NIMAG=0\\0.67637394,0.0,0.57646964,0.0,0.0,0.17026182,-0.15
 906278,0.03855308,0.0,0.77237044,0.05528665,-0.25731515,0.0,0.06925873
 ,0.75136725,0.0,0.0,-0.07024073,0.0,0.0,0.13760645,-0.03965462,0.12526
 098,0.0,-0.38083254,-0.06164454,0.0,0.77365705,0.05701529,0.05289701,0
 .0,0.04285769,-0.15226760,0.0,-0.03602301,0.82009676,0.0,0.0,0.0018065
 6,0.0,0.0,-0.07245202,0.0,0.0,0.17654968,0.02004547,0.0,0.0,-0.0306701
 3,-0.02572768,0.0,-0.21749801,-0.14404945,0.0,0.85759348,0.0,-0.125469
 30,0.0,-0.11736487,0.05649773,0.0,-0.03348168,-0.30956523,0.0,0.0,0.72
 752659,0.0,0.0,-0.00554459,0.0,0.0,0.01071302,0.0,0.0,-0.07603699,0.0,
 0.0,0.14709392,-0.30908988,0.0,0.0,-0.04983026,0.05503196,0.0,0.014123
 38,-0.01356916,0.0,-0.01848674,0.0,0.0,0.39230381,0.0,-0.00720062,0.0,
 0.02823560,-0.00830835,0.0,-0.00853227,-0.00648402,0.0,0.0,0.01006940,
 0.0,0.0,0.02986247,0.0,0.0,-0.04946228,0.0,0.0,0.00890523,0.0,0.0,0.00
 664991,0.0,0.0,-0.00161410,0.0,0.0,0.02605462,0.01510878,0.01713113,0.
 0,-0.15018377,-0.13257001,0.0,-0.00993062,-0.03431247,0.0,-0.00628678,
 0.00149252,0.0,0.00112596,0.00079717,0.0,0.15223662,-0.01014374,-0.019
 69781,0.0,-0.13495091,-0.30479083,0.0,0.00235684,0.00521063,0.0,0.0004
 7745,0.00205356,0.0,-0.00417568,-0.00138699,0.0,0.14288779,0.32233598,
 0.0,0.0,0.00323738,0.0,0.0,-0.03612995,0.0,0.0,0.00111335,0.0,0.0,0.00
 802191,0.0,0.0,-0.00329316,0.0,0.0,0.02701063,-0.01027126,0.00249450,0
 .0,-0.01080598,0.03112985,0.0,-0.14716510,0.12987018,0.0,0.01603051,-0
 .01642787,0.0,0.00205560,0.00011046,0.0,0.00125407,-0.00039487,0.0,0.1
 4891986,-0.00234068,0.00270111,0.0,-0.00222522,0.00455055,0.0,0.130248
 07,-0.30555094,0.0,0.01911184,-0.01891704,0.0,0.00077003,-0.00016677,0
 .0,0.00057863,0.00107574,0.0,-0.14142340,0.32032181,0.0,0.0,0.00791156
 ,0.0,0.0,0.00533139,0.0,0.0,-0.04900796,0.0,0.0,0.00624281,0.0,0.0,0.0
 0056057,0.0,0.0,-0.00521257,0.0,0.0,0.03261774,0.00043021,0.0,0.0,0.00
 071909,-0.00340796,0.0,-0.01199062,0.00345609,0.0,-0.38230340,0.0,0.0,
 0.00032343,0.0,0.0,-0.00071945,0.00017077,0.0,0.00094055,-0.00054381,0
 .0,0.40365062,0.0,-0.00097006,0.0,-0.00225834,-0.00566729,0.0,-0.03382
 640,0.00673226,0.0,0.0,-0.07226472,0.0,0.0,-0.00003899,0.0,-0.00160852
 ,0.00011284,0.0,0.00077592,0.00115181,0.0,0.0,0.06861453,0.0,0.0,-0.00
 068445,0.0,0.0,0.00749754,0.0,0.0,0.00188258,0.0,0.0,-0.03781678,0.0,0
 .0,-0.00062332,0.0,0.0,0.00060820,0.0,0.0,-0.00484513,0.0,0.0,0.028838
 18,-0.15906277,-0.03855307,0.0,0.09533287,-0.02454114,0.0,-0.08492539,
 -0.05598058,0.0,-0.03067013,0.11736489,0.0,-0.04983027,-0.02823559,0.0
 ,-0.00208419,0.00324345,0.0,-0.00002735,-0.00061599,0.0,0.00071909,0.0
 0225834,0.0,0.77237044,-0.05528665,-0.25731513,0.0,0.02454114,-0.04988
 285,0.0,-0.03974046,-0.03003742,0.0,0.02572767,0.05649774,0.0,-0.05503
 196,-0.00830836,0.0,0.00360701,-0.00432196,0.0,-0.00105069,0.00017593,
 0.0,0.00340796,-0.00566729,0.0,-0.06925873,0.75136725,0.0,0.0,-0.07024
 072,0.0,0.0,0.00611051,0.0,0.0,-0.00170511,0.0,0.0,0.01071301,0.0,0.0,
 0.00890523,0.0,0.0,0.00508739,0.0,0.0,-0.00072365,0.0,0.0,0.00749755,0
 .0,0.0,0.13760645,-0.03965462,-0.12526099,0.0,-0.08492539,0.03974046,0
 .0,0.10716788,0.04766578,0.0,-0.21749800,0.03348166,0.0,0.01412338,0.0
 0853227,0.0,-0.00133782,0.00154079,0.0,-0.00161361,-0.00458904,0.0,-0.
 01199062,0.03382640,0.0,-0.38083254,0.06164454,0.0,0.77365705,-0.05701
 529,0.05289701,0.0,0.05598058,-0.03003742,0.0,-0.04766578,-0.07716063,
 0.0,0.14404945,-0.30956523,0.0,0.01356916,-0.00648402,0.0,0.00109435,0
 .00023078,0.0,-0.00416399,-0.00410159,0.0,-0.00345609,0.00673226,0.0,-
 0.04285769,-0.15226760,0.0,0.03602301,0.82009676,0.0,0.0,0.00180655,0.
 0,0.0,-0.00170511,0.0,0.0,0.00169054,0.0,0.0,-0.07603699,0.0,0.0,0.006
 64990,0.0,0.0,0.00102972,0.0,0.0,0.00847977,0.0,0.0,0.00188258,0.0,0.0
 ,-0.07245202,0.0,0.0,0.17654968,0.01510879,-0.01713113,0.0,-0.00208419
 ,-0.00360701,0.0,-0.00133782,-0.00109435,0.0,-0.00628678,-0.00149252,0
 .0,0.00112596,-0.00079717,0.0,0.00074985,-0.00098790,0.0,0.00006734,0.
 00008549,0.0,-0.00071945,0.00160852,0.0,-0.15018377,0.13257001,0.0,-0.
 00993062,0.03431247,0.0,0.15223662,0.01014374,-0.01969781,0.0,-0.00324
 345,-0.00432196,0.0,-0.00154079,0.00023078,0.0,-0.00047745,0.00205355,
 0.0,0.00417568,-0.00138698,0.0,0.00098790,-0.00079795,0.0,0.00002399,-
 0.00002399,0.0,-0.00017077,0.00011284,0.0,0.13495091,-0.30479083,0.0,-
 0.00235684,0.00521063,0.0,-0.14288779,0.32233598,0.0,0.0,0.00323738,0.
 0,0.0,0.00508739,0.0,0.0,0.00102972,0.0,0.0,0.00802191,0.0,0.0,-0.0032
 9316,0.0,0.0,-0.00044246,0.0,0.0,-0.00103048,0.0,0.0,0.00060820,0.0,0.
 0,-0.03612995,0.0,0.0,0.00111335,0.0,0.0,0.02701063,-0.01027126,-0.002
 49450,0.0,-0.00002735,0.00105069,0.0,-0.00161361,0.00416399,0.0,0.0160
 3051,0.01642788,0.0,0.00205561,-0.00011045,0.0,0.00006734,-0.00002399,
 0.0,0.00061535,0.00094407,0.0,0.00094056,-0.00077592,0.0,-0.01080598,-
 0.03112985,0.0,-0.14716510,-0.12987018,0.0,0.00125407,0.00039487,0.0,0
 .14891986,0.00234068,0.00270111,0.0,0.00061599,0.00017593,0.0,0.004589
 04,-0.00410159,0.0,-0.01911184,-0.01891703,0.0,-0.00077003,-0.00016677
 ,0.0,-0.00008549,-0.00002399,0.0,-0.00094407,-0.00121661,0.0,0.0005438
 0,0.00115181,0.0,0.00222522,0.00455055,0.0,-0.13024807,-0.30555094,0.0
 ,-0.00057863,0.00107574,0.0,0.14142340,0.32032181,0.0,0.0,0.00791156,0
 .0,0.0,-0.00072365,0.0,0.0,0.00847977,0.0,0.0,0.00624281,0.0,0.0,0.000
 56057,0.0,0.0,-0.00103048,0.0,0.0,-0.00032407,0.0,0.0,-0.00484513,0.0,
 0.0,0.00533139,0.0,0.0,-0.04900796,0.0,0.0,-0.00521257,0.0,0.0,0.03261
 774\\0.00007626,0.0,0.0,0.00003808,-0.00003834,0.0,0.00000941,0.000162
 70,0.0,-0.00000242,0.0,0.0,-0.00007326,0.0,0.0,0.00002024,0.00005778,0
 .0,-0.00004931,0.00005682,0.0,-0.00003745,0.0,0.0,0.00003808,0.0000383
 4,0.0,0.00000941,-0.00016270,0.0,0.00002024,-0.00005778,0.0,-0.0000493
 1,-0.00005682,0.0\\\@


 "PERFECTION IS NOT AN ACCIDENT"
         --  EAGLE ELECTRIC MANUFACTURING CO.,INC. NY
 Job cpu time:  0 days  2 hours  8 minutes 30.2 seconds.
 File lengths (MBytes):  RWF=   40 Int=    0 D2E=    0 Chk=    1 Scr=    0
 Normal termination of Gaussian 92.
