setenv GAUSS_EXEDIR /opt/g98/linda-exe:/opt/g98/bsd:/opt/g98/private:/opt/g98
g98
 Entering Gaussian System, Link 0=g98
 Initial command:
 /opt/g98/l1.exe /tmp/Gau-7276.inp -scrdir=/tmp/
 Entering Link 1 = /opt/g98/l1.exe PID=      7277.
  
 Copyright (c) 1988,1990,1992,1993,1995,1998 Gaussian, Inc.
                  All Rights Reserved.
  
 This is part of the Gaussian(R) 98 program.  It is based on
 the Gaussian 94(TM) system (copyright 1995 Gaussian, Inc.),
 the Gaussian 92(TM) system (copyright 1992 Gaussian, Inc.),
 the Gaussian 90(TM) system (copyright 1990 Gaussian, Inc.),
 the Gaussian 88(TM) system (copyright 1988 Gaussian, Inc.),
 the Gaussian 86(TM) system (copyright 1986 Carnegie Mellon
 University), and the Gaussian 82(TM) system (copyright 1983
 Carnegie Mellon University). Gaussian is a federally registered
 trademark of Gaussian, Inc.
  
 This software contains proprietary and confidential information,
 including trade secrets, belonging to Gaussian, Inc.
  
 This software is provided under written license and may be
 used, copied, transmitted, or stored only in accord with that
 written license.
  
 The following legend is applicable only to US Government
 contracts under DFARS:
  
                    RESTRICTED RIGHTS LEGEND
  
 Use, duplication or disclosure by the US Government is subject
 to restrictions as set forth in subparagraph (c)(1)(ii) of the
 Rights in Technical Data and Computer Software clause at DFARS
 252.227-7013.
  
 Gaussian, Inc.
 Carnegie Office Park, Building 6, Pittsburgh, PA 15106 USA
  
 The following legend is applicable only to US Government
 contracts under FAR:
  
                    RESTRICTED RIGHTS LEGEND
  
 Use, reproduction and disclosure by the US Government is subject
 to restrictions as set forth in subparagraph (c) of the
 Commercial Computer Software - Restricted Rights clause at FAR
 52.227-19.
  
 Gaussian, Inc.
 Carnegie Office Park, Building 6, Pittsburgh, PA 15106 USA
  
  
 ---------------------------------------------------------------
 Warning -- This program may not be used in any manner that
 competes with the business of Gaussian, Inc. or will provide
 assistance to any competitor of Gaussian, Inc.  The licensee
 of this program is prohibited from giving any competitor of
 Gaussian, Inc. access to this program.  By using this program,
 the user acknowledges that Gaussian, Inc. is engaged in the
 business of creating and licensing software in the field of
 computational chemistry and represents and warrants to the
 licensee that it is not a competitor of Gaussian, Inc. and that
 it will not use this program in any manner prohibited above.
 ---------------------------------------------------------------
  

 Cite this work as:
 Gaussian 98, Revision A.7,
 M. J. Frisch, G. W. Trucks, H. B. Schlegel, G. E. Scuseria, 
 M. A. Robb, J. R. Cheeseman, V. G. Zakrzewski, J. A. Montgomery, Jr., 
 R. E. Stratmann, J. C. Burant, S. Dapprich, J. M. Millam, 
 A. D. Daniels, K. N. Kudin, M. C. Strain, O. Farkas, J. Tomasi, 
 V. Barone, M. Cossi, R. Cammi, B. Mennucci, C. Pomelli, C. Adamo, 
 S. Clifford, J. Ochterski, G. A. Petersson, P. Y. Ayala, Q. Cui, 
 K. Morokuma, D. K. Malick, A. D. Rabuck, K. Raghavachari, 
 J. B. Foresman, J. Cioslowski, J. V. Ortiz, A. G. Baboul, 
 B. B. Stefanov, G. Liu, A. Liashenko, P. Piskorz, I. Komaromi, 
 R. Gomperts, R. L. Martin, D. J. Fox, T. Keith, M. A. Al-Laham, 
 C. Y. Peng, A. Nanayakkara, C. Gonzalez, M. Challacombe, 
 P. M. W. Gill, B. Johnson, W. Chen, M. W. Wong, J. L. Andres, 
 C. Gonzalez, M. Head-Gordon, E. S. Replogle, and J. A. Pople, 
 Gaussian, Inc., Pittsburgh PA, 1998.

 *********************************************
 Gaussian 98:  x86-Linux-G98RevA.7 11-Apr-1999
                   5-Jul-2001 
 *********************************************
 %nprocl=8
 Will use up to    8 processors via Linda.
 %chk=mol-cas-15728-34-4.chk
 --------------------
 #T dreiding Opt Test
 --------------------
 ----------------------------------------------------------------------
 Gaussian input file contructed from a MDL molfile using BABEL for conv
 ersion to Gaussian z-matrix. (c) 1999 Christoph Steinbeck Geometry opt
 imization/NMR shielding calculation: mol-cas-15728-34-4 <chemname> 2-(
 3-ethoxy-4-hydroxybenzylidene)malononitrile
 </chemname> <casno> 15728
 -34-4
 </casno>
 ----------------------------------------------------------------------
 Symbolic Z-matrix:
 Charge =  0 Multiplicity = 1
 C
 C                    1    r2
 O                    2    r3       1    a3
 C                    3    r4       2    a4       1    d4       0
 C                    4    r5       3    a5       2    d5       0
 C                    5    r6       4    a6       3    d6       0
 C                    6    r7       5    a7       4    d7       0
 N                    5    r8       4    a8       3    d8       0
 C                    8    r9       5    a9       4    d9       0
 C                    7    r10      6    a10      5    d10      0
 C                    10   r11      7    a11      6    d11      0
 N                    11   r12      10   a12      7    d12      0
 C                    6    r13      5    a13      4    d13      0
 C                    13   r14      6    a14      5    d14      0
 C                    14   r15      13   a15      6    d15      0
 O                    15   r16      14   a16      13   d16      0
 H                    1    r17      2    a17      3    d17      0
 H                    1    r18      2    a18      3    d18      0
 H                    1    r19      2    a19      3    d19      0
 H                    2    r20      1    a20      3    d20      0
 H                    2    r21      1    a21      3    d21      0
 H                    5    r22      4    a22      3    d22      0
 H                    7    r23      6    a23      5    d23      0
 H                    13   r24      6    a24      5    d24      0
 H                    14   r25      13   a25      6    d25      0
 H                    16   r26      15   a26      14   d26      0
       Variables:
  r2                    1.512                    
  r3                    1.4121                   
  a3                  110.09                     
  r4                    1.3221                   
  a4                  117.72                     
  d4                   93.06                     
  r5                    1.4132                   
  a5                  120.79                     
  d5                  335.19                     
  r6                    1.391                    
  a6                  120.4                      
  d6                  179.05                     
  r7                    1.4926                   
  a7                  119.77                     
  d7                  179.3                      
  r8                    3.1879                   
  a8                  117.88                     
  d8                   71.4                      
  r9                    1.1653                   
  a9                   60.66                     
  d9                  164.69                     
  r10                   1.3406                   
  a10                 118.5                      
  d10                  46.07                     
  r11                   1.4419                   
  a11                 120.94                     
  d11                 190.02                     
  r12                   1.1519                   
  a12                 180.                       
  d12                  65.68                     
  r13                   1.4078                   
  a13                 120.21                     
  d13                   0.56                     
  r14                   1.3991                   
  a14                 119.78                     
  d14                 358.96                     
  r15                   1.4124                   
  a15                 120.72                     
  d15                   0.77                     
  r16                   1.2995                   
  a16                 119.79                     
  d16                 179.97                     
  r17                   1.07                     
  a17                 109.47                     
  d17                   0.03                     
  r18                   1.07                     
  a18                 109.47                     
  d18                 240.                       
  r19                   1.07                     
  a19                 109.47                     
  d19                 120.                       
  r20                   1.07                     
  a20                 109.11                     
  d20                 240.29                     
  r21                   1.07                     
  a21                 109.32                     
  d21                 120.1                      
  r22                   1.07                     
  a22                 119.8                      
  d22                 359.05                     
  r23                   1.07                     
  a23                 120.75                     
  d23                 226.07                     
  r24                   1.07                     
  a24                 120.11                     
  d24                 178.96                     
  r25                   1.07                     
  a25                 119.64                     
  d25                 180.77                     
  r26                   0.96                     
  a26                 120.                       
  d26                 359.97                     

 GradGradGradGradGradGradGradGradGradGradGradGradGradGradGradGradGradGrad
 Initialization pass.
 Number of steps in this run=  10 maximum allowed number of steps= 156.
 GradGradGradGradGradGradGradGradGradGradGradGradGradGradGradGradGradGrad

 ------------------------------------------------------------------------
                         Z-MATRIX (ANGSTROMS AND DEGREES)
 CD Cent Atom  N1     Length/X     N2    Alpha/Y     N3     Beta/Z      J
 ------------------------------------------------------------------------
   1   1  C 
   2   2  C     1   1.512000(  1)
   3   3  O     2   1.412100(  2)   1  110.090( 26)
   4   4  C     3   1.322100(  3)   2  117.720( 27)   1   93.060( 50)   0
   5   5  C     4   1.413200(  4)   3  120.790( 28)   2  335.190( 51)   0
   6   6  C     5   1.391000(  5)   4  120.400( 29)   3  179.050( 52)   0
   7   7  C     6   1.492600(  6)   5  119.770( 30)   4  179.300( 53)   0
   8   8  N     5   3.187900(  7)   4  117.880( 31)   3   71.400( 54)   0
   9   9  C     8   1.165300(  8)   5   60.660( 32)   4  164.690( 55)   0
  10  10  C     7   1.340600(  9)   6  118.500( 33)   5   46.070( 56)   0
  11  11  C    10   1.441900( 10)   7  120.940( 34)   6  190.020( 57)   0
  12  12  N    11   1.151900( 11)  10  180.000( 35)   7   65.680( 58)   0
  13  13  C     6   1.407800( 12)   5  120.210( 36)   4    0.560( 59)   0
  14  14  C    13   1.399100( 13)   6  119.780( 37)   5  358.960( 60)   0
  15  15  C    14   1.412400( 14)  13  120.720( 38)   6    0.770( 61)   0
  16  16  O    15   1.299500( 15)  14  119.790( 39)  13  179.970( 62)   0
  17  17  H     1   1.070000( 16)   2  109.470( 40)   3    0.030( 63)   0
  18  18  H     1   1.070000( 17)   2  109.470( 41)   3  240.000( 64)   0
  19  19  H     1   1.070000( 18)   2  109.470( 42)   3  120.000( 65)   0
  20  20  H     2   1.070000( 19)   1  109.110( 43)   3  240.290( 66)   0
  21  21  H     2   1.070000( 20)   1  109.320( 44)   3  120.100( 67)   0
  22  22  H     5   1.070000( 21)   4  119.800( 45)   3  359.050( 68)   0
  23  23  H     7   1.070000( 22)   6  120.750( 46)   5  226.070( 69)   0
  24  24  H    13   1.070000( 23)   6  120.110( 47)   5  178.960( 70)   0
  25  25  H    14   1.070000( 24)  13  119.640( 48)   6  180.770( 71)   0
  26  26  H    16   0.960000( 25)  15  120.000( 49)  14  359.970( 72)   0
 ------------------------------------------------------------------------
                    Distance matrix (angstroms):
                    1          2          3          4          5
     1  C    0.000000
     2  C    1.512000   0.000000
     3  O    2.397282   1.412100   0.000000
     4  C    3.169851   2.340682   1.322100   0.000000
     5  C    3.196819   2.753925   2.378637   1.413200   0.000000
     6  C    4.535454   4.124757   3.641415   2.433413   1.391000
     7  C    5.199367   5.057580   4.873521   3.798592   2.494893
     8  N    4.507023   3.895208   4.473276   4.046386   3.187900
     9  C    4.626551   4.249384   4.637527   3.972884   2.807158
    10  C    5.143214   5.034091   5.208202   4.342053   2.973389
    11  C    6.079880   6.196259   6.508706   5.714988   4.316669
    12  N    6.953472   7.197777   7.584473   6.832240   5.426278
    13  C    5.563235   4.954522   4.136555   2.814517   2.426407
    14  C    5.553420   4.741977   3.640417   2.436197   2.802716
    15  C    4.523306   3.604690   2.362653   1.413847   2.445832
    16  O    5.091189   4.075469   2.734968   2.363742   3.638989
    17  H    1.070000   2.123568   2.374996   3.002226   3.103407
    18  H    1.070000   2.123568   3.107122   3.559023   3.142062
    19  H    1.070000   2.123568   3.107122   4.092775   4.251491
    20  H    2.119045   1.070000   2.031783   3.167591   3.769509
    21  H    2.121685   1.070000   2.034369   2.440006   2.449565
    22  H    2.550208   2.460461   2.629969   2.155228   1.070000
    23  H    6.010578   5.989852   5.708052   4.588019   3.361376
    24  H    6.560009   5.996963   5.206526   3.884466   3.394123
    25  H    6.549268   5.687687   4.508953   3.405912   3.872692
    26  H    6.045701   5.028118   3.694951   3.235808   4.407640
                    6          7          8          9         10
     6  C    0.000000
     7  C    1.492600   0.000000
     8  N    3.471176   3.456315   0.000000
     9  C    2.758503   2.389513   1.165300   0.000000
    10  C    2.436110   1.340600   2.597122   1.431861   0.000000
    11  C    3.775229   2.421562   3.541980   2.489222   1.441900
    12  N    4.887227   3.478591   4.490809   3.534992   2.593800
    13  C    1.407800   2.512279   4.496791   3.904611   3.599569
    14  C    2.428152   3.795010   5.130482   4.798885   4.778696
    15  C    2.819886   4.312444   4.952514   4.841819   5.093984
    16  O    4.119292   5.611857   5.971986   6.009889   6.367196
    17  H    4.362913   5.094642   5.106199   5.024871   5.287426
    18  H    4.344788   4.713048   3.957125   3.986384   4.456570
    19  H    5.601061   6.246495   5.282182   5.522693   6.114219
    20  H    5.114799   6.075160   4.515360   5.061568   5.982274
    21  H    3.695044   4.480833   2.844823   3.311201   4.269207
    22  H    2.135215   2.689077   2.852292   2.496535   2.761705
    23  H    2.237389   1.070000   4.476935   3.368074   2.099750
    24  H    2.153637   2.715959   5.089189   4.385949   3.858057
    25  H    3.396176   4.650917   6.049772   5.737312   5.681259
    26  H    4.667011   6.140672   6.682119   6.688642   6.981340
                   11         12         13         14         15
    11  C    0.000000
    12  N    1.151900   0.000000
    13  C    4.875587   5.949669   0.000000
    14  C    6.134476   7.241523   1.399100   0.000000
    15  C    6.503113   7.637628   2.443624   1.412400   0.000000
    16  O    7.783905   8.921482   3.622089   2.346769   1.299500
    17  H    6.238173   7.117347   5.289492   5.238103   4.244557
    18  H    5.235897   6.036291   5.553837   5.802498   4.968506
    19  H    6.972324   7.782813   6.603914   6.510101   5.386636
    20  H    7.124365   8.105722   5.849672   5.487320   4.247397
    21  H    5.432361   6.443073   4.630598   4.625872   3.703791
    22  H    3.937322   4.978136   3.394734   3.872712   3.414028
    23  H    2.654627   3.484588   2.875658   4.229885   4.942820
    24  H    4.955361   5.938800   1.070000   2.145785   3.411799
    25  H    6.997638   8.080109   2.140817   1.070000   2.152804
    26  H    8.394332   9.529362   3.902479   2.512358   1.964133
                   16         17         18         19         20
    16  O    0.000000
    17  H    4.801401   0.000000
    18  H    5.733414   1.747580   0.000000
    19  H    5.785872   1.747052   1.747316   0.000000
    20  H    4.447690   2.823769   2.827098   2.218952   0.000000
    21  H    4.381155   2.828444   2.222649   2.827192   1.751722
    22  H    4.511461   2.643405   2.222385   3.599607   3.507682
    23  H    6.222713   5.775298   5.522347   7.054434   7.030278
    24  H    4.488257   6.269338   6.472795   7.613135   6.898704
    25  H    2.594737   6.198542   6.849748   7.473524   6.353398
    26  H    0.960000   5.720288   6.675342   6.737673   5.368859
                   21         22         23         24         25
    21  H    0.000000
    22  H    2.068064   0.000000
    23  H    5.489670   3.592321   0.000000
    24  H    5.613787   4.276802   2.746862   0.000000
    25  H    5.606606   4.942682   4.950725   2.465081   0.000000
    26  H    5.292217   5.347179   6.661267   4.604544   2.341577
                   26
    26  H    0.000000
                           Interatomic angles:
       C1-C2-O3=110.09         C2-O3-C4=117.72         O3-C4-C5=120.79  
       C4-C5-C6=120.4          C5-C6-C7=119.77         C4-C5-N8=117.88  
       C6-C5-N8= 89.6865       C5-N8-C9= 60.66        C6-C7-C10=118.5   
     C7-C10-C11=120.94      C10-C11-N12=180.          C5-C6-C13=120.21  
      C7-C6-C13=120.008      C6-C13-C14=119.78      C13-C14-C15=120.72  
    C14-C15-O16=119.79        C2-C1-H17=109.47        C2-C1-H18=109.47  
     H17-C1-H18=109.4969      C2-C1-H19=109.47       H17-C1-H19=109.4479
     H18-C1-H19=109.4724      C1-C2-H20=109.11        O3-C2-H20=109.108 
      C1-C2-H21=109.32        O3-C2-H21=109.3191     H20-C2-H21=109.8821
      C4-C5-H22=119.8         C6-C5-H22=119.8         N8-C5-H22= 62.2921
      C6-C7-H23=120.75       C10-C7-H23=120.75       C6-C13-H24=120.11  
    C14-C13-H24=120.11      C13-C14-H25=119.64      C15-C14-H25=119.64  
    C15-O16-H26=120.    
 Framework group  C1[X(C12H10N2O2)]
 Deg. of freedom   72
                         Standard orientation:                         
 ---------------------------------------------------------------------
 Center     Atomic     Atomic              Coordinates (Angstroms)
 Number     Number      Type              X           Y           Z
 ---------------------------------------------------------------------
    1          6             0       -1.129449    3.073521   -1.013446
    2          6             0       -1.644870    2.389593    0.232639
    3          8             0       -2.358985    1.222030   -0.115012
    4          6             0       -1.694567    0.079280   -0.139882
    5          6             0       -0.297000    0.059453   -0.348562
    6          6             0        0.396914   -1.146093   -0.353587
    7          6             0        1.870513   -1.152010   -0.590916
    8          7             0        1.577071    1.108226    2.007417
    9          6             0        2.044461    0.486193    1.139923
   10          6             0        2.628582   -0.266253    0.070879
   11          6             0        4.016785   -0.077479   -0.270197
   12          7             0        5.125787    0.073328   -0.542675
   13          6             0       -0.290280   -2.359775   -0.162168
   14          6             0       -1.672338   -2.348986    0.055273
   15          6             0       -2.391083   -1.133220    0.069101
   16          8             0       -3.674572   -1.144270    0.272162
   17          1             0       -1.425763    2.513869   -1.875936
   18          1             0       -0.061664    3.129694   -0.973699
   19          1             0       -1.536640    4.061250   -1.072501
   20          1             0       -2.298200    3.057552    0.754071
   21          1             0       -0.818577    2.125780    0.859171
   22          1             0        0.230577    0.977339   -0.503637
   23          1             0        2.311870   -1.847512   -1.273838
   24          1             0        0.242613   -3.287403   -0.182903
   25          1             0       -2.190449   -3.271831    0.212807
   26          1             0       -4.131309   -1.977044    0.411730
 ---------------------------------------------------------------------
 Rotational constants (GHZ):      0.8245406      0.3582842      0.2796574
 Isotopes: C-12,C-12,O-16,C-12,C-12,C-12,C-12,N-14,C-12,C-12,C-12,N-14,C-12,C-12,
 C-12,O-16,H-1,H-1,H-1,H-1,H-1,H-1,H-1,H-1,H-1,H-1
    74 basis functions      222 primitive gaussians
    40 alpha electrons       40 beta electrons
       nuclear repulsion energy       505.0889546683 Hartrees.
 Dreiding calculation of energy and first derivatives.
 MO and density RWFs will be updated.
 Recover connectivity from rwf.
 EGHMM:  NBAlg=1 ICut=1 CutNB= 1.43D+03
 I=    5 IAn=  6 Valence= 6.
          JB=  1 J=    4 IAn=  6 IBT= 2 Dist= 1.41D+00
          JB=  2 J=    6 IAn=  6 IBT= 2 Dist= 1.39D+00
          JB=  3 J=   22 IAn=  1 IBT= 1 Dist= 1.07D+00
 I=    6 IAn=  6 Valence= 6.
          JB=  1 J=    5 IAn=  6 IBT= 2 Dist= 1.39D+00
          JB=  2 J=    7 IAn=  6 IBT= 1 Dist= 1.49D+00
          JB=  3 J=   13 IAn=  6 IBT= 2 Dist= 1.41D+00
 I=    9 IAn=  6 Valence= 6.
          JB=  1 J=    8 IAn=  7 IBT= 3 Dist= 1.17D+00
          JB=  2 J=   10 IAn=  6 IBT= 1 Dist= 1.43D+00
 I=   10 IAn=  6 Valence= 6.
          JB=  1 J=    7 IAn=  6 IBT= 2 Dist= 1.34D+00
          JB=  2 J=    9 IAn=  6 IBT= 1 Dist= 1.43D+00
          JB=  3 J=   11 IAn=  6 IBT= 1 Dist= 1.44D+00
 I=   13 IAn=  6 Valence= 6.
          JB=  1 J=    6 IAn=  6 IBT= 2 Dist= 1.41D+00
          JB=  2 J=   14 IAn=  6 IBT= 2 Dist= 1.40D+00
          JB=  3 J=   24 IAn=  1 IBT= 1 Dist= 1.07D+00
 I=   14 IAn=  6 Valence= 6.
          JB=  1 J=   13 IAn=  6 IBT= 2 Dist= 1.40D+00
          JB=  2 J=   15 IAn=  6 IBT= 2 Dist= 1.41D+00
          JB=  3 J=   25 IAn=  1 IBT= 1 Dist= 1.07D+00
 I=   15 IAn=  6 Valence= 6.
          JB=  1 J=    4 IAn=  6 IBT= 2 Dist= 1.41D+00
          JB=  2 J=   14 IAn=  6 IBT= 2 Dist= 1.41D+00
          JB=  3 J=   16 IAn=  8 IBT= 1 Dist= 1.30D+00
 Convergence limit is  0.750E-04
  Step  NS  ND Rises Max. Force  RMS Force Max. Disp.  RMS Disp.     Energy   Flag
     1   1   0   F   0.09190201 0.02600994 0.08441775 0.02389176    0.1512852 ----
     2   2   2   F   0.08124986 0.01886745 0.06018473 0.01412638    0.1252220 ----
     3   3   3   F   0.05064960 0.01233843 0.08162116 0.02331890    0.1110205 ----
     4   4   4   F   0.04991860 0.00990208 0.07297941 0.01941270    0.0951987 ----
     5   5   5   F   0.01493393 0.00500896 0.05033001 0.01641135    0.0859174 ----
     6   6   6   F   0.01135505 0.00387625 0.02458994 0.00801419    0.0813919 ----
     7   7   7   F   0.01232343 0.00292878 0.02608705 0.00637493    0.0797735 ----
     8   8   8   F   0.00836273 0.00250373 0.03006123 0.00751098    0.0786410 ----
     9   9   9   F   0.00967146 0.00207475 0.03514251 0.00786070    0.0774501 ----
    10  10  10   F   0.00660806 0.00185501 0.03017882 0.00706935    0.0763663 ----
    11  11   1   F   0.00789128 0.00173770 0.01124268 0.00247569    0.0755035 ----
    12  12  12   F   0.00701116 0.00202687 0.09335054 0.02122858    0.0752556 ----
    13   2   1   F   0.00534237 0.00127149 0.00762086 0.00181377    0.0732912 ----
    14   3   3   F   0.00554505 0.00153482 0.02312510 0.00534361    0.0731720 ----
    15   4   4   F   0.00385677 0.00104596 0.06965381 0.01531613    0.0727900 ----
    16   2   1   F   0.00327571 0.00094611 0.00467581 0.00135049    0.0719860 ----
    17   3   3   F   0.00360691 0.00114800 0.01915592 0.00435600    0.0719199 ----
    18   4   4   F   0.00256574 0.00079006 0.03590133 0.00777976    0.0717281 ----
    19   5   1   F   0.00259579 0.00073430 0.00370647 0.00104849    0.0714445 ----
    20   6   6   F   0.00266407 0.00075233 0.02588434 0.00676904    0.0713904 ----
    21   2   1   F   0.00246198 0.00067584 0.00351567 0.00096509    0.0710861 ----
    22   3   3   F   0.00251894 0.00076736 0.00426445 0.00114835    0.0710464 ----
    23   4   4   F   0.00245836 0.00061121 0.00953391 0.00259418    0.0709929 ----
    24   5   5   F   0.00240605 0.00059813 0.01865434 0.00488295    0.0708798 ----
    25   6   1   F   0.00235067 0.00058227 0.00335708 0.00083156    0.0706702 ----
    26   7   7   F   0.00235655 0.00058740 0.02861083 0.00719879    0.0706336 ----
    27   8   8   F   0.00225069 0.00055712 0.01587715 0.00386670    0.0703324 ----
    28   9   9   F   0.00223132 0.00054374 0.04317591 0.01054692    0.0701702 ----
    29   2   1   F   0.00206359 0.00052931 0.00294724 0.00075597    0.0697461 ----
    30   3   3   F   0.00207297 0.00054174 0.07173179 0.01753320    0.0697167 ----
    31   2   1   F   0.00188176 0.00050442 0.00268762 0.00072043    0.0690661 ----
    32   3   3   F   0.00174912 0.00053343 0.02146709 0.00526656    0.0690405 ----
    33   2   1   F   0.00181511 0.00048279 0.00259247 0.00068955    0.0688557 ----
    34   3   3   F   0.00171916 0.00049995 0.00360226 0.00090232    0.0688312 ----
    35   4   4   F   0.00177847 0.00046836 0.06759964 0.01671405    0.0687988 ----
    36   2   1   F   0.00167473 0.00044393 0.00239204 0.00063407    0.0682321 ----
    37   3   3   F   0.00171535 0.00046174 0.06180380 0.01525097    0.0682121 ----
    38   4   4   F   0.00157806 0.00041269 0.03146958 0.00775742    0.0677397 ----
    39   2   1   F   0.00152496 0.00040132 0.00217820 0.00057324    0.0675140 ----
    40   3   3   F   0.00147963 0.00040107 0.07739878 0.01907104    0.0674966 ----
    41   2   1   F   0.00136560 0.00041719 0.00195056 0.00059590    0.0669793 ----
    42   3   3   F   0.00233613 0.00053431 0.06162136 0.01520360    0.0669667 ----
    43   2   1   F   0.00115828 0.00036349 0.00165449 0.00051921    0.0665913 ----
    44   3   3   F   0.00112589 0.00039107 0.00384014 0.00097040    0.0665785 ----
    45   4   4   F   0.00112727 0.00033998 0.05005303 0.01258667    0.0665542 ----
    46   2   1   F   0.00099038 0.00032322 0.00141469 0.00046169    0.0662581 ----
    47   3   3   F   0.00099407 0.00034940 0.07461801 0.01883603    0.0662478 ----
    48   4   4   F   0.00088259 0.00028974 0.04170972 0.01058809    0.0658474 ----
    49   2   1   F   0.00095659 0.00028256 0.00136645 0.00040363    0.0656431 ----
    50   3   3   F   0.00091187 0.00029497 0.04729456 0.01212387    0.0656350 ----
    51   2   1   F   0.00094277 0.00027647 0.00134672 0.00039492    0.0654171 ----
    52   3   3   F   0.00103384 0.00031503 0.01339589 0.00349455    0.0654102 ----
    53   2   2   F   0.00086891 0.00025460 0.00053713 0.00019184    0.0653494 ---+
    54   3   3   F   0.00082261 0.00025965 0.00068524 0.00021895    0.0653470 ---+
    55   4   4   F   0.00080693 0.00024743 0.01084931 0.00346059    0.0653429 ----
    56   5   5   F   0.00069640 0.00024063 0.00303653 0.00101316    0.0652789 ----
    57   6   6   F   0.00071023 0.00023788 0.00538292 0.00184556    0.0652605 ----
    58   2   1   F   0.00069082 0.00023636 0.00098683 0.00033764    0.0652272 ----
    59   3   3   F   0.00067785 0.00023818 0.00864209 0.00302391    0.0652211 ----
    60   2   1   F   0.00064078 0.00023511 0.00091535 0.00033585    0.0651670 ----
    61   3   3   F   0.00063477 0.00024270 0.00344665 0.00121505    0.0651611 ----
    62   2   2   F   0.00062028 0.00023193 0.00055856 0.00020307    0.0651395 ---+
    63   3   3   F   0.00061745 0.00023531 0.00046223 0.00017083    0.0651360 ---+
    64   4   4   F   0.00061522 0.00022992 0.00878835 0.00322297    0.0651329 ----
    65   2   1   F   0.00061295 0.00022899 0.00087561 0.00032711    0.0650756 ----
    66   3   3   F   0.00061589 0.00023079 0.01493833 0.00553411    0.0650699 ----
    67   2   1   F   0.00064445 0.00022563 0.00092060 0.00032231    0.0649731 ----
    68   3   3   F   0.00064697 0.00022745 0.00306325 0.00116217    0.0649675 ----
    69   4   4   F   0.00065413 0.00022413 0.02034937 0.00772155    0.0649473 ----
    70   2   1   F   0.00071155 0.00022320 0.00101646 0.00031884    0.0648153 ----
    71   3   3   F   0.00070615 0.00022585 0.01960468 0.00734313    0.0648099 ----
    72   2   1   F   0.00076706 0.00022026 0.00109575 0.00031464    0.0646869 ----
    73   3   3   F   0.00075393 0.00021977 0.00279358 0.00097068    0.0646815 ----
    74   2   1   F   0.00075396 0.00021931 0.00107704 0.00031329    0.0646652 ----
    75   3   3   F   0.00074680 0.00022042 0.00283450 0.00093409    0.0646599 ----
    76   2   2   F   0.00074436 0.00021856 0.00051660 0.00013624    0.0646442 ---+
    77   3   3   F   0.00074145 0.00021877 0.00062450 0.00018961    0.0646419 ---+
    78   4   4   F   0.00074049 0.00021801 0.00323173 0.00098126    0.0646387 ----
    79   2   1   F   0.00073639 0.00021797 0.00105194 0.00031137    0.0646220 ----
    80   3   3   F   0.00073603 0.00021854 0.00408749 0.00123559    0.0646167 ----
    81   2   2   F   0.00073381 0.00021769 0.00035587 0.00010268    0.0645958 --++
    82   3   3   F   0.00073456 0.00021812 0.00065314 0.00019526    0.0645941 ---+
    83   4   4   F   0.00073457 0.00021746 0.00443438 0.00132310    0.0645908 ----
    84   2   1   F   0.00073522 0.00021742 0.00105026 0.00031058    0.0645683 ----
    85   3   3   F   0.00073529 0.00021749 0.00860705 0.00256364    0.0645631 ----
    86   2   1   F   0.00073846 0.00021733 0.00105490 0.00031045    0.0645197 ----
    87   3   3   F   0.00073743 0.00021765 0.00154440 0.00045843    0.0645144 ----
    88   4   4   F   0.00073779 0.00021719 0.00974594 0.00289100    0.0645066 ----
    89   2   1   F   0.00074180 0.00021716 0.00105967 0.00031021    0.0644577 ----
    90   3   3   F   0.00074011 0.00021716 0.00006468 0.00001874    0.0644524 --++
    91   4   4   F   0.00073942 0.00021715 0.00039697 0.00011641    0.0644521 --++
    92   2   2   F   0.00073912 0.00021715 0.00085348 0.00025080    0.0644502 ---+
    93   2   1   F   0.00073879 0.00021716 0.00105537 0.00031022    0.0644459 ----
    94   2   2   F   0.00073862 0.00021718 0.00020499 0.00006027    0.0644407 --++
    95   3   2   F   0.00073862 0.00021717 0.00115776 0.00034041    0.0644396 ----
    96   2   1   F   0.00073866 0.00021718 0.00105519 0.00031025    0.0644339 ----
    97   2   1   F   0.00073882 0.00021720 0.00052771 0.00015513    0.0644286 ---+
    98   2   2   F   0.00073893 0.00021720 0.00065721 0.00019319    0.0644260 ---+
    99   2   1   F   0.00073908 0.00021721 0.00105578 0.00031029    0.0644227 ----
   100   3   2   F   0.00073936 0.00021725 0.00019940 0.00005859    0.0644175 --++
   101   4   2   F   0.00073941 0.00021723 0.00116818 0.00034318    0.0644165 ----
   102   2   1   F   0.00073975 0.00021725 0.00105674 0.00031034    0.0644107 ----
   103   2   1   F   0.00074008 0.00021727 0.00052860 0.00015518    0.0644054 ---+
   104   3   2   F   0.00074024 0.00021727 0.00066687 0.00019576    0.0644028 ---+
   105   2   1   F   0.00074045 0.00021729 0.00105774 0.00031040    0.0643995 ----
   106   3   2   F   0.00074079 0.00021733 0.00019870 0.00005829    0.0643942 --++
   107   4   2   F   0.00074085 0.00021731 0.00117217 0.00034381    0.0643932 ----
   108   2   1   F   0.00074123 0.00021733 0.00105886 0.00031045    0.0643874 ----
   109   2   1   F   0.00074158 0.00021735 0.00052968 0.00015524    0.0643821 ---+
   110   3   2   F   0.00074175 0.00021736 0.00067186 0.00019690    0.0643795 ---+
   111   2   1   F   0.00074197 0.00021738 0.00105991 0.00031053    0.0643761 ----
   112   3   2   F   0.00074232 0.00021742 0.00019826 0.00005807    0.0643709 --++
   113   4   2   F   0.00074238 0.00021740 0.00117566 0.00034427    0.0643699 ----
   114   2   1   F   0.00074276 0.00021742 0.00106104 0.00031059    0.0643641 ----
   115   2   1   F   0.00074310 0.00021745 0.00053077 0.00015532    0.0643588 ---+
   116   3   2   F   0.00074327 0.00021746 0.00067558 0.00019767    0.0643562 ---+
   117   2   1   F   0.00074349 0.00021748 0.00106208 0.00031068    0.0643528 ----
   118   3   2   F   0.00074384 0.00021753 0.00019790 0.00005787    0.0643475 --++
   119   4   2   F   0.00074389 0.00021751 0.00117894 0.00034470    0.0643465 ----
   120   2   1   F   0.00074427 0.00021753 0.00106320 0.00031075    0.0643407 ----
   121   2   1   F   0.00074462 0.00021757 0.00053185 0.00015540    0.0643354 ---+
   122   3   2   F   0.00074478 0.00021757 0.00067875 0.00019830    0.0643328 ---+
   123   2   1   F   0.00074500 0.00021760 0.00106424 0.00031084    0.0643294 ----
   124   3   2   F   0.00074534 0.00021766 0.00019757 0.00005769    0.0643242 --++
   125   4   2   F   0.00074540 0.00021763 0.00118212 0.00034512    0.0643232 ----
   126   2   1   F   0.00074578 0.00021766 0.00106535 0.00031092    0.0643173 ----
   127   2   1   F   0.00074612 0.00021769 0.00053292 0.00015549    0.0643120 ---+
   128   3   2   F   0.00074629 0.00021770 0.00068161 0.00019885    0.0643094 ---+
   129   2   1   F   0.00074651 0.00021773 0.00106639 0.00031103    0.0643060 ----
   130   3   2   F   0.00074685 0.00021779 0.00019726 0.00005752    0.0643007 --++
   131   4   2   F   0.00074691 0.00021776 0.00118524 0.00034554    0.0642998 ----
   132   2   1   F   0.00074729 0.00021779 0.00106751 0.00031112    0.0642939 ----
   133   2   1   F   0.00074764 0.00021783 0.00053400 0.00015559    0.0642886 ---+
   134   3   2   F   0.00074780 0.00021784 0.00068426 0.00019935    0.0642860 ---+
   135   2   1   F   0.00074802 0.00021787 0.00106856 0.00031123    0.0642826 ----
   136   3   2   F   0.00074837 0.00021794 0.00019696 0.00005736    0.0642773 --++
   137   4   2   F   0.00074843 0.00021791 0.00118836 0.00034598    0.0642763 ----
   138   2   1   F   0.00074881 0.00021794 0.00106968 0.00031133    0.0642704 ----
   139   2   1   F   0.00074916 0.00021798 0.00053509 0.00015569    0.0642651 ---+
   140   3   2   F   0.00074932 0.00021799 0.00068677 0.00019981    0.0642625 ---+
   141   2   1   F   0.00074955 0.00021803 0.00107074 0.00031145    0.0642591 ----
   142   3   2   F   0.00074990 0.00021810 0.00019667 0.00005720    0.0642538 --++
   143   4   2   F   0.00074996 0.00021807 0.00119147 0.00034642    0.0642528 ----
   144   2   1   F   0.00075034 0.00021810 0.00107187 0.00031156    0.0642469 ----
   145   2   1   F   0.00075069 0.00021814 0.00053619 0.00015581    0.0642416 ---+
   146   3   2   F   0.00075086 0.00021815 0.00068920 0.00020025    0.0642390 ---+
   147   2   1   F   0.00075109 0.00021819 0.00107293 0.00031169    0.0642356 ----
   148   3   2   F   0.00075144 0.00021827 0.00019638 0.00005704    0.0642303 --++
   149   4   2   F   0.00075150 0.00021823 0.00119460 0.00034689    0.0642293 ----
   150   2   1   F   0.00075189 0.00021827 0.00107408 0.00031180    0.0642234 ----
   151   2   1   F   0.00075224 0.00021832 0.00053729 0.00015593    0.0642181 ---+
   152   3   2   F   0.00075241 0.00021833 0.00069155 0.00020068    0.0642154 ---+
   153   2   1   F   0.00075264 0.00021837 0.00107515 0.00031194    0.0642120 ----
   154   3   2   F   0.00075299 0.00021845 0.00019609 0.00005689    0.0642067 --++
   155   4   2   F   0.00075305 0.00021841 0.00119775 0.00034737    0.0642057 ----
   156   2   1   F   0.00075345 0.00021845 0.00107630 0.00031206    0.0641998 ----
   157   2   1   F   0.00075380 0.00021850 0.00053841 0.00015606    0.0641945 ---+
   158   3   2   F   0.00075397 0.00021851 0.00069386 0.00020110    0.0641918 ---+
   159   2   1   F   0.00075420 0.00021855 0.00107738 0.00031220    0.0641884 ----
   160   3   2   F   0.00075456 0.00021864 0.00019580 0.00005673    0.0641831 --++
   161   4   2   F   0.00075462 0.00021860 0.00120092 0.00034786    0.0641821 ----
   162   2   1   F   0.00075502 0.00021864 0.00107855 0.00031233    0.0641762 ----
   163   2   1   F   0.00075538 0.00021869 0.00053953 0.00015620    0.0641709 ---+
   164   3   2   F   0.00075555 0.00021870 0.00069613 0.00020152    0.0641682 ---+
   165   2   1   F   0.00075578 0.00021875 0.00107964 0.00031248    0.0641648 ----
   166   3   2   F   0.00075614 0.00021884 0.00019549 0.00005658    0.0641594 --++
   167   4   2   F   0.00075620 0.00021880 0.00120411 0.00034837    0.0641585 ----
   168   2   1   F   0.00075660 0.00021884 0.00108081 0.00031261    0.0641525 ----
   169   2   1   F   0.00075696 0.00021889 0.00054066 0.00015635    0.0641472 ---+
   170   3   2   F   0.00075713 0.00021891 0.00069837 0.00020193    0.0641445 ---+
   171   2   1   F   0.00075736 0.00021895 0.00108190 0.00031277    0.0641411 ----
   172   3   2   F   0.00075773 0.00021905 0.00019518 0.00005642    0.0641357 --++
   173   4   2   F   0.00075779 0.00021900 0.00120734 0.00034890    0.0641348 ----
   174   2   1   F   0.00075819 0.00021905 0.00108308 0.00031291    0.0641288 ----
   175   2   1   F   0.00075855 0.00021911 0.00054180 0.00015650    0.0641234 ---+
   176   3   2   F   0.00075872 0.00021912 0.00070059 0.00020234    0.0641208 ---+
   177   2   1   F   0.00075896 0.00021916 0.00108418 0.00031308    0.0641173 ----
   178   3   2   F   0.00075932 0.00021926 0.00019485 0.00005627    0.0641120 --++
   179   4   2   F   0.00075938 0.00021922 0.00121058 0.00034945    0.0641110 ----
   180   2   1   F   0.00075978 0.00021926 0.00108536 0.00031322    0.0641050 ----
   181   2   1   F   0.00076015 0.00021933 0.00054294 0.00015665    0.0640997 ---+
   182   3   2   F   0.00076032 0.00021934 0.00070278 0.00020275    0.0640970 ---+
   183   2   1   F   0.00076056 0.00021939 0.00108646 0.00031339    0.0640935 ----
   184   3   2   F   0.00076092 0.00021949 0.00019451 0.00005611    0.0640882 --++
   185   4   2   F   0.00076098 0.00021944 0.00121385 0.00035001    0.0640872 ----
   186   2   1   F   0.00076138 0.00021949 0.00108764 0.00031354    0.0640812 ----
   187   2   1   F   0.00076175 0.00021955 0.00054408 0.00015682    0.0640758 ---+
   188   3   2   F   0.00076192 0.00021957 0.00070497 0.00020316    0.0640732 ---+
   189   2   1   F   0.00076216 0.00021962 0.00108875 0.00031372    0.0640697 ----
   190   3   2   F   0.00076253 0.00021972 0.00019415 0.00005594    0.0640643 --++
   191   4   2   F   0.00076258 0.00021967 0.00121713 0.00035059    0.0640633 ----
   192   2   1   F   0.00076299 0.00021972 0.00108993 0.00031387    0.0640573 ----
   193   2   1   F   0.00076335 0.00021979 0.00054523 0.00015698    0.0640520 ---+
   194   3   2   F   0.00076352 0.00021980 0.00070714 0.00020358    0.0640493 ---+
   195   2   1   F   0.00076376 0.00021985 0.00109104 0.00031406    0.0640458 ----
   196   3   2   F   0.00076413 0.00021996 0.00019377 0.00005578    0.0640404 --++
   197   4   2   F   0.00076419 0.00021991 0.00122044 0.00035118    0.0640394 ----
   198   2   1   F   0.00076459 0.00021996 0.00109222 0.00031422    0.0640334 ----
   199   2   1   F   0.00076495 0.00022003 0.00054637 0.00015716    0.0640280 ---+
   200   3   2   F   0.00076513 0.00022004 0.00070929 0.00020400    0.0640253 ---+
   201   2   1   F   0.00076536 0.00022009 0.00109333 0.00031441    0.0640218 ----
   202   3   2   F   0.00076573 0.00022020 0.00019337 0.00005561    0.0640164 --++
   203   4   2   F   0.00076579 0.00022016 0.00122375 0.00035179    0.0640155 ----
   204   2   1   F   0.00076619 0.00022021 0.00109451 0.00031457    0.0640094 ----
   205   2   1   F   0.00076655 0.00022028 0.00054751 0.00015733    0.0640040 ---+
   206   3   2   F   0.00076672 0.00022029 0.00071144 0.00020442    0.0640013 ---+
   207   2   1   F   0.00076696 0.00022034 0.00109561 0.00031476    0.0639978 ----
   208   3   2   F   0.00076733 0.00022046 0.00019296 0.00005544    0.0639924 --++
   209   4   2   F   0.00076739 0.00022041 0.00122708 0.00035242    0.0639914 ----
   210   2   1   F   0.00076779 0.00022046 0.00109679 0.00031493    0.0639854 ----
   211   2   1   F   0.00076815 0.00022053 0.00054865 0.00015752    0.0639800 ---+
   212   3   2   F   0.00076832 0.00022055 0.00071357 0.00020484    0.0639773 ---+
   213   2   1   F   0.00076856 0.00022060 0.00109789 0.00031513    0.0639737 ----
   214   3   2   F   0.00076892 0.00022071 0.00019253 0.00005526    0.0639683 --++
   215   4   2   F   0.00076898 0.00022067 0.00123042 0.00035305    0.0639674 ----
   216   2   1   F   0.00076938 0.00022072 0.00109906 0.00031530    0.0639613 ----
   217   2   1   F   0.00076974 0.00022079 0.00054979 0.00015770    0.0639559 ---+
   218   3   2   F   0.00076991 0.00022081 0.00071569 0.00020527    0.0639531 ---+
   219   2   1   F   0.00077014 0.00022086 0.00110016 0.00031550    0.0639496 ----
   220   3   2   F   0.00077051 0.00022098 0.00019208 0.00005509    0.0639442 --++
   221   4   2   F   0.00077056 0.00022093 0.00123375 0.00035371    0.0639432 ----
   222   2   1   F   0.00077096 0.00022098 0.00110132 0.00031568    0.0639371 ----
   223   2   1   F   0.00077132 0.00022106 0.00055092 0.00015789    0.0639317 ---+
   224   3   2   F   0.00077149 0.00022107 0.00071780 0.00020570    0.0639290 ---+
   225   2   1   F   0.00077172 0.00022113 0.00110241 0.00031589    0.0639254 ----
   226   3   2   F   0.00077208 0.00022125 0.00019161 0.00005491    0.0639200 --++
   227   4   2   F   0.00077214 0.00022120 0.00123709 0.00035437    0.0639190 ----
   228   2   1   F   0.00077253 0.00022125 0.00110357 0.00031606    0.0639129 ----
   229   2   1   F   0.00077289 0.00022133 0.00055204 0.00015808    0.0639074 ---+
   230   3   2   F   0.00077306 0.00022134 0.00071990 0.00020613    0.0639047 ---+
   231   2   1   F   0.00077329 0.00022140 0.00110465 0.00031627    0.0639012 ----
   232   3   2   F   0.00077365 0.00022152 0.00019112 0.00005472    0.0638957 --++
   233   4   2   F   0.00077371 0.00022147 0.00124043 0.00035504    0.0638948 ----
   234   2   1   F   0.00077410 0.00022153 0.00110581 0.00031645    0.0638886 ----
   235   2   1   F   0.00077445 0.00022160 0.00055316 0.00015828    0.0638832 ---+
   236   3   2   F   0.00077462 0.00022162 0.00072198 0.00020657    0.0638804 ---+
   237   2   1   F   0.00077485 0.00022168 0.00110688 0.00031667    0.0638768 ----
   238   3   2   F   0.00077521 0.00022180 0.00019062 0.00005454    0.0638714 --++
   239   4   2   F   0.00077526 0.00022175 0.00124375 0.00035572    0.0638704 ----
   240   2   1   F   0.00077565 0.00022181 0.00110802 0.00031685    0.0638643 ----
   241   2   1   F   0.00077600 0.00022188 0.00055426 0.00015848    0.0638588 ---+
   242   3   2   F   0.00077617 0.00022190 0.00072405 0.00020701    0.0638561 ---+
   243   2   1   F   0.00077639 0.00022196 0.00110908 0.00031707    0.0638525 ----
   244   3   2   F   0.00077675 0.00022208 0.00019010 0.00005435    0.0638470 --++
   245   4   2   F   0.00077680 0.00022203 0.00124706 0.00035642    0.0638460 ----
   246   2   1   F   0.00077719 0.00022209 0.00111022 0.00031726    0.0638399 ----
   247   2   1   F   0.00077754 0.00022217 0.00055536 0.00015868    0.0638344 ---+
   248   3   2   F   0.00077770 0.00022218 0.00072611 0.00020745    0.0638316 ---+
   249   2   1   F   0.00077792 0.00022224 0.00111127 0.00031748    0.0638280 ----
   250   3   2   F   0.00077827 0.00022236 0.00018957 0.00005416    0.0638225 --++
   251   4   2   F   0.00077833 0.00022232 0.00125036 0.00035712    0.0638216 ----
   252   2   1   F   0.00077871 0.00022238 0.00111239 0.00031766    0.0638154 ----
   253   2   1   F   0.00077905 0.00022245 0.00055644 0.00015889    0.0638099 ---+
   254   3   2   F   0.00077921 0.00022247 0.00072815 0.00020790    0.0638071 ---+
   255   2   1   F   0.00077944 0.00022253 0.00111343 0.00031789    0.0638035 ----
   256   3   2   F   0.00077979 0.00022265 0.00018903 0.00005397    0.0637980 --++
   257   4   2   F   0.00077984 0.00022261 0.00125363 0.00035782    0.0637971 ----
   258   2   1   F   0.00078021 0.00022266 0.00111454 0.00031808    0.0637908 ----
   259   2   1   F   0.00078056 0.00022274 0.00055751 0.00015910    0.0637853 ---+
   260   3   2   F   0.00078071 0.00022276 0.00073017 0.00020834    0.0637826 ---+
   261   2   1   F   0.00078094 0.00022282 0.00111557 0.00031830    0.0637789 ----
   262   3   2   F   0.00078128 0.00022294 0.00018848 0.00005378    0.0637734 --++
   263   4   2   F   0.00078133 0.00022290 0.00125688 0.00035854    0.0637725 ----
   264   2   1   F   0.00078170 0.00022296 0.00111667 0.00031850    0.0637662 ----
   265   2   1   F   0.00078204 0.00022304 0.00055857 0.00015931    0.0637607 ---+
   266   3   2   F   0.00078219 0.00022305 0.00073218 0.00020880    0.0637579 ---+
   267   2   1   F   0.00078241 0.00022312 0.00111768 0.00031872    0.0637543 ----
   268   3   2   F   0.00078275 0.00022324 0.00018792 0.00005359    0.0637487 --++
   269   4   2   F   0.00078280 0.00022319 0.00126011 0.00035925    0.0637478 ----
   270   2   1   F   0.00078317 0.00022325 0.00111876 0.00031892    0.0637416 ----
   271   2   1   F   0.00078350 0.00022333 0.00055962 0.00015952    0.0637360 ---+
   272   3   2   F   0.00078366 0.00022335 0.00073417 0.00020925    0.0637332 ---+
   273   2   1   F   0.00078387 0.00022341 0.00111977 0.00031915    0.0637296 ----
   274   3   2   F   0.00078421 0.00022354 0.00018735 0.00005340    0.0637240 --++
   275   4   2   F   0.00078426 0.00022349 0.00126330 0.00035997    0.0637231 ----
   276   2   1   F   0.00078462 0.00022355 0.00112083 0.00031934    0.0637168 ----
   277   2   1   F   0.00078495 0.00022363 0.00056065 0.00015973    0.0637112 ---+
   278   3   2   F   0.00078510 0.00022365 0.00073614 0.00020970    0.0637085 ---+
   279   2   1   F   0.00078531 0.00022371 0.00112182 0.00031957    0.0637048 ----
   280   3   2   F   0.00078564 0.00022383 0.00018677 0.00005321    0.0636992 --++
   281   4   2   F   0.00078569 0.00022379 0.00126645 0.00036069    0.0636983 ----
   282   2   1   F   0.00078605 0.00022385 0.00112287 0.00031977    0.0636920 ----
   283   2   1   F   0.00078637 0.00022393 0.00056167 0.00015994    0.0636864 ---+
   284   3   2   F   0.00078652 0.00022395 0.00073810 0.00021016    0.0636836 ---+
   285   2   1   F   0.00078673 0.00022401 0.00112385 0.00032000    0.0636800 ----
   286   3   2   F   0.00078705 0.00022413 0.00018619 0.00005302    0.0636744 --++
   287   4   2   F   0.00078710 0.00022409 0.00126956 0.00036142    0.0636734 ----
   288   2   1   F   0.00078745 0.00022415 0.00112488 0.00032020    0.0636671 ----
   289   2   1   F   0.00078777 0.00022423 0.00056267 0.00016016    0.0636615 ---+
   290   3   2   F   0.00078792 0.00022425 0.00074003 0.00021062    0.0636587 ---+
   291   2   1   F   0.00078812 0.00022431 0.00112584 0.00032043    0.0636550 ----
   292   3   2   F   0.00078844 0.00022443 0.00018561 0.00005283    0.0636494 --++
   293   4   2   F   0.00078849 0.00022439 0.00127263 0.00036214    0.0636485 ----
   294   2   1   F   0.00078883 0.00022445 0.00112685 0.00032063    0.0636422 ----
   295   2   1   F   0.00078915 0.00022453 0.00056365 0.00016037    0.0636366 ---+
   296   3   2   F   0.00078929 0.00022455 0.00074195 0.00021108    0.0636337 ---+
   297   2   1   F   0.00078949 0.00022461 0.00112780 0.00032086    0.0636300 ----
   298   3   2   F   0.00078981 0.00022474 0.00018502 0.00005265    0.0636244 --++
   299   4   2   F   0.00078985 0.00022469 0.00127565 0.00036286    0.0636235 ----
   300   2   1   F   0.00079019 0.00022475 0.00112879 0.00032106    0.0636171 ----
   301   2   1   F   0.00079050 0.00022484 0.00056462 0.00016059    0.0636115 ---+
   302   3   2   F   0.00079064 0.00022485 0.00074385 0.00021155    0.0636087 ---+
   303   2   1   F   0.00079084 0.00022492 0.00112972 0.00032129    0.0636050 ----
   304   3   2   F   0.00079115 0.00022504 0.00018443 0.00005246    0.0635993 --++
   305   4   2   F   0.00079119 0.00022499 0.00127862 0.00036358    0.0635984 ----
   306   2   1   F   0.00079152 0.00022506 0.00113070 0.00032149    0.0635920 ----
   307   2   1   F   0.00079182 0.00022514 0.00056556 0.00016081    0.0635864 ---+
   308   3   2   F   0.00079196 0.00022516 0.00074572 0.00021201    0.0635836 ---+
   309   2   1   F   0.00079216 0.00022522 0.00113160 0.00032173    0.0635799 ----
   310   3   2   F   0.00079246 0.00022534 0.00018384 0.00005228    0.0635742 --++
   311   4   2   F   0.00079250 0.00022530 0.00128154 0.00036430    0.0635733 ----
   312   2   1   F   0.00079283 0.00022536 0.00113256 0.00032193    0.0635669 ----
   313   2   1   F   0.00079313 0.00022544 0.00056649 0.00016102    0.0635612 ---+
   314   3   2   F   0.00079326 0.00022546 0.00074758 0.00021248    0.0635584 ---+
   315   2   1   F   0.00079345 0.00022552 0.00113345 0.00032216    0.0635547 ----
   316   3   2   F   0.00079375 0.00022564 0.00018325 0.00005209    0.0635490 --++
   317   4   2   F   0.00079379 0.00022560 0.00128441 0.00036501    0.0635481 ----
   318   2   1   F   0.00079411 0.00022566 0.00113439 0.00032236    0.0635417 ----
   319   2   1   F   0.00079440 0.00022575 0.00056740 0.00016124    0.0635360 ---+
   320   3   2   F   0.00079453 0.00022576 0.00074942 0.00021294    0.0635331 ---+
   321   2   1   F   0.00079472 0.00022582 0.00113526 0.00032259    0.0635294 ----
   322   3   2   F   0.00079501 0.00022595 0.00018266 0.00005191    0.0635237 --++
   323   4   2   F   0.00079505 0.00022590 0.00128722 0.00036572    0.0635228 ----
   324   2   1   F   0.00079536 0.00022597 0.00113618 0.00032279    0.0635163 ----
   325   2   1   F   0.00079564 0.00022605 0.00056829 0.00016146    0.0635107 ---+
   326   3   2   F   0.00079577 0.00022606 0.00075123 0.00021341    0.0635078 ---+
   327   2   1   F   0.00079596 0.00022613 0.00113703 0.00032302    0.0635040 ----
   328   3   2   F   0.00079624 0.00022625 0.00018207 0.00005173    0.0634984 --++
   329   4   2   F   0.00079628 0.00022621 0.00128998 0.00036643    0.0634974 ----
   330   2   1   F   0.00079659 0.00022627 0.00113793 0.00032322    0.0634910 ----
   331   2   1   F   0.00079686 0.00022635 0.00056916 0.00016167    0.0634853 ---+
   332   3   2   F   0.00079699 0.00022637 0.00075303 0.00021388    0.0634824 ---+
   333   2   1   F   0.00079717 0.00022643 0.00113876 0.00032345    0.0634786 ----
   334   3   2   F   0.00079744 0.00022655 0.00018148 0.00005156    0.0634729 --++
   335   4   2   F   0.00079748 0.00022651 0.00129267 0.00036713    0.0634720 ----
   336   2   1   F   0.00079778 0.00022657 0.00113963 0.00032365    0.0634655 ----
   337   2   1   F   0.00079805 0.00022665 0.00057001 0.00016189    0.0634598 ---+
   338   3   2   F   0.00079817 0.00022667 0.00075481 0.00021435    0.0634569 ---+
   339   2   1   F   0.00079835 0.00022673 0.00114045 0.00032388    0.0634532 ----
   340   3   2   F   0.00079862 0.00022685 0.00018088 0.00005138    0.0634474 --++
   341   4   2   F   0.00079865 0.00022681 0.00129531 0.00036782    0.0634465 ----
   342   2   1   F   0.00079895 0.00022687 0.00114130 0.00032408    0.0634400 ----
   343   2   1   F   0.00079921 0.00022695 0.00057084 0.00016210    0.0634343 ---+
   344   3   2   F   0.00079933 0.00022697 0.00075657 0.00021482    0.0634314 ---+
   345   2   1   F   0.00079950 0.00022703 0.00114209 0.00032431    0.0634276 ----
   346   3   2   F   0.00079976 0.00022714 0.00018028 0.00005120    0.0634219 --++
   347   4   2   F   0.00079980 0.00022711 0.00129789 0.00036851    0.0634210 ----
   348   2   1   F   0.00080008 0.00022717 0.00114292 0.00032451    0.0634144 ----
   349   2   1   F   0.00080034 0.00022725 0.00057164 0.00016231    0.0634087 ---+
   350   3   2   F   0.00080045 0.00022726 0.00075831 0.00021529    0.0634058 ---+
   351   2   1   F   0.00080062 0.00022732 0.00114369 0.00032473    0.0634020 ----
   352   3   2   F   0.00080088 0.00022744 0.00017968 0.00005103    0.0633962 --++
   353   4   2   F   0.00080091 0.00022740 0.00130041 0.00036920    0.0633953 ----
   354   2   1   F   0.00080119 0.00022746 0.00114450 0.00032493    0.0633888 ----
   355   2   1   F   0.00080144 0.00022754 0.00057243 0.00016252    0.0633830 ---+
   356   3   2   F   0.00080155 0.00022756 0.00076003 0.00021577    0.0633801 ---+
   357   2   1   F   0.00080171 0.00022762 0.00114525 0.00032516    0.0633763 ----
   358   3   2   F   0.00080196 0.00022773 0.00017908 0.00005085    0.0633705 --++
   359   4   2   F   0.00080199 0.00022770 0.00130287 0.00036988    0.0633696 ----
   360   2   1   F   0.00080226 0.00022776 0.00114603 0.00032535    0.0633630 ----
   361   2   1   F   0.00080250 0.00022784 0.00057319 0.00016273    0.0633573 ---+
   362   3   2   F   0.00080261 0.00022785 0.00076173 0.00021624    0.0633544 ---+
   363   2   1   F   0.00080277 0.00022791 0.00114676 0.00032557    0.0633505 ----
   364   3   2   F   0.00080301 0.00022803 0.00017846 0.00005068    0.0633447 --++
   365   4   2   F   0.00080304 0.00022799 0.00130528 0.00037055    0.0633438 ----
   366   2   1   F   0.00080330 0.00022805 0.00114752 0.00032577    0.0633373 ----
   367   2   1   F   0.00080354 0.00022813 0.00057393 0.00016294    0.0633315 ---+
   368   3   2   F   0.00080364 0.00022814 0.00076341 0.00021672    0.0633286 ---+
   369   2   1   F   0.00080379 0.00022820 0.00114822 0.00032599    0.0633247 ----
   370   3   2   F   0.00080403 0.00022831 0.00017784 0.00005050    0.0633189 --++
   371   4   2   F   0.00080406 0.00022828 0.00130762 0.00037122    0.0633180 ----
   372   2   1   F   0.00080431 0.00022834 0.00114896 0.00032618    0.0633114 ----
   373   2   1   F   0.00080454 0.00022842 0.00057464 0.00016315    0.0633056 ---+
   374   3   2   F   0.00080464 0.00022843 0.00076508 0.00021720    0.0633027 ---+
   375   2   1   F   0.00080479 0.00022849 0.00114964 0.00032640    0.0632988 ----
   376   3   2   F   0.00080501 0.00022860 0.00017721 0.00005032    0.0632930 --++
   377   4   2   F   0.00080504 0.00022856 0.00130991 0.00037188    0.0632921 ----
   378   2   1   F   0.00080529 0.00022862 0.00115036 0.00032659    0.0632855 ----
   379   2   1   F   0.00080551 0.00022870 0.00057533 0.00016335    0.0632796 ---+
   380   3   2   F   0.00080560 0.00022871 0.00076673 0.00021767    0.0632767 ---+
   381   2   1   F   0.00080575 0.00022877 0.00115101 0.00032680    0.0632728 ----
   382   3   2   F   0.00080597 0.00022888 0.00017657 0.00005014    0.0632670 --++
   383   4   2   F   0.00080599 0.00022885 0.00131214 0.00037253    0.0632661 ----
   384   2   1   F   0.00080623 0.00022890 0.00115170 0.00032699    0.0632595 ----
   385   2   1   F   0.00080644 0.00022898 0.00057600 0.00016355    0.0632536 ---+
   386   3   2   F   0.00080654 0.00022900 0.00076837 0.00021815    0.0632507 ---+
   387   2   1   F   0.00080668 0.00022905 0.00115234 0.00032720    0.0632468 ----
   388   3   2   F   0.00080689 0.00022916 0.00017592 0.00004996    0.0632410 --++
   389   4   2   F   0.00080691 0.00022913 0.00131431 0.00037318    0.0632401 ----
   390   2   1   F   0.00080714 0.00022918 0.00115300 0.00032739    0.0632334 ----
   391   2   1   F   0.00080735 0.00022926 0.00057665 0.00016375    0.0632275 ---+
   392   3   2   F   0.00080743 0.00022927 0.00076999 0.00021864    0.0632246 ---+
   393   2   1   F   0.00080757 0.00022933 0.00115362 0.00032760    0.0632207 ----
   394   3   2   F   0.00080777 0.00022944 0.00017525 0.00004978    0.0632148 --++
   395   4   2   F   0.00080780 0.00022940 0.00131642 0.00037382    0.0632140 ----
   396   2   1   F   0.00080802 0.00022946 0.00115425 0.00032778    0.0632073 ----
   397   2   1   F   0.00080821 0.00022953 0.00057727 0.00016394    0.0632014 ---+
   398   3   2   F   0.00080830 0.00022955 0.00077160 0.00021912    0.0631985 ---+
   399   2   1   F   0.00080843 0.00022960 0.00115484 0.00032799    0.0631945 ----
   400   3   2   F   0.00080862 0.00022971 0.00017456 0.00004959    0.0631887 --++
   401   4   2   F   0.00080865 0.00022967 0.00131849 0.00037446    0.0631878 ----
   402   2   1   F   0.00080886 0.00022973 0.00115546 0.00032817    0.0631811 ----
   403   2   1   F   0.00080905 0.00022980 0.00057786 0.00016414    0.0631752 ---+
   404   3   2   F   0.00080913 0.00022982 0.00077319 0.00021960    0.0631723 ---+
   405   2   1   F   0.00080925 0.00022987 0.00115602 0.00032837    0.0631683 ----
   406   3   2   F   0.00080944 0.00022997 0.00017385 0.00004939    0.0631624 --++
   407   4   2   F   0.00080946 0.00022994 0.00132050 0.00037509    0.0631615 ----
   408   2   1   F   0.00080967 0.00023000 0.00115661 0.00032855    0.0631548 ----
   409   2   1   F   0.00080985 0.00023007 0.00057843 0.00016433    0.0631489 ---+
   410   3   2   F   0.00080993 0.00023008 0.00077478 0.00022009    0.0631460 ---+
   411   2   1   F   0.00081005 0.00023014 0.00115715 0.00032875    0.0631420 ----
   412   3   2   F   0.00081023 0.00023023 0.00017312 0.00004919    0.0631361 --++
   413   4   2   F   0.00081025 0.00023020 0.00132246 0.00037571    0.0631352 ----
   414   2   1   F   0.00081044 0.00023026 0.00115771 0.00032892    0.0631285 ----
   415   2   1   F   0.00081061 0.00023033 0.00057898 0.00016451    0.0631226 ---+
   416   3   2   F   0.00081069 0.00023034 0.00077635 0.00022058    0.0631196 ---+
   417   2   1   F   0.00081080 0.00023039 0.00115823 0.00032912    0.0631157 ----
   418   3   2   F   0.00081097 0.00023049 0.00017237 0.00004899    0.0631097 --++
   419   4   2   F   0.00081099 0.00023046 0.00132437 0.00037633    0.0631089 ----
   420   2   1   F   0.00081118 0.00023051 0.00115877 0.00032929    0.0631021 ----
   421   2   1   F   0.00081134 0.00023059 0.00057950 0.00016470    0.0630962 ---+
   422   3   2   F   0.00081141 0.00023060 0.00077791 0.00022107    0.0630932 ---+
   423   2   1   F   0.00081152 0.00023065 0.00115926 0.00032948    0.0630892 ----
   424   3   2   F   0.00081169 0.00023074 0.00017159 0.00004878    0.0630833 --++
   425   4   2   F   0.00081171 0.00023072 0.00132623 0.00037694    0.0630824 ----
   426   2   1   F   0.00081188 0.00023077 0.00115977 0.00032965    0.0630757 ----
   427   2   1   F   0.00081204 0.00023084 0.00058000 0.00016487    0.0630697 ---+
   428   3   2   F   0.00081210 0.00023085 0.00077947 0.00022157    0.0630668 ---+
   429   2   1   F   0.00081221 0.00023090 0.00116024 0.00032984    0.0630628 ----
   430   3   2   F   0.00081236 0.00023099 0.00017077 0.00004856    0.0630568 --++
   431   4   2   F   0.00081238 0.00023096 0.00132804 0.00037755    0.0630559 ----
   432   2   1   F   0.00081255 0.00023101 0.00116073 0.00033000    0.0630491 ----
   433   2   1   F   0.00081270 0.00023108 0.00058047 0.00016505    0.0630432 ---+
   434   3   2   F   0.00081276 0.00023109 0.00078103 0.00022206    0.0630402 ---+
   435   2   1   F   0.00081286 0.00023114 0.00116117 0.00033019    0.0630362 ----
   436   3   2   F   0.00081301 0.00023123 0.00016993 0.00004833    0.0630303 --++
   437   4   2   F   0.00081302 0.00023121 0.00132982 0.00037815    0.0630294 ----
   438   2   1   F   0.00081318 0.00023126 0.00116163 0.00033035    0.0630226 ----
   439   2   1   F   0.00081332 0.00023132 0.00058092 0.00016522    0.0630166 ---+
   440   3   2   F   0.00081338 0.00023133 0.00078257 0.00022257    0.0630136 ---+
   441   2   1   F   0.00081347 0.00023138 0.00116205 0.00033053    0.0630096 ----
   442   3   2   F   0.00081361 0.00023147 0.00016905 0.00004809    0.0630037 --++
   443   4   2   F   0.00081363 0.00023144 0.00133155 0.00037875    0.0630028 ----
   444   2   1   F   0.00081377 0.00023149 0.00116248 0.00033069    0.0629960 ----
   445   2   1   F   0.00081391 0.00023156 0.00058134 0.00016539    0.0629900 ---+
   446   3   2   F   0.00081396 0.00023157 0.00078412 0.00022307    0.0629870 ---+
   447   2   1   F   0.00081405 0.00023161 0.00116287 0.00033086    0.0629830 ----
   448   3   2   F   0.00081418 0.00023170 0.00016813 0.00004785    0.0629770 --++
   449   4   2   F   0.00081420 0.00023168 0.00133324 0.00037935    0.0629761 ----
   450   2   1   F   0.00081434 0.00023172 0.00116328 0.00033102    0.0629693 ----
   451   2   1   F   0.00081446 0.00023178 0.00058173 0.00016555    0.0629633 ---+
   452   3   2   F   0.00081451 0.00023180 0.00078567 0.00022358    0.0629603 ---+
   453   2   1   F   0.00081459 0.00023184 0.00116365 0.00033119    0.0629562 ----
   454   3   2   F   0.00081472 0.00023193 0.00016717 0.00004759    0.0629503 --++
   455   4   2   F   0.00081473 0.00023190 0.00133489 0.00037994    0.0629494 ----
   456   2   1   F   0.00081486 0.00023195 0.00116403 0.00033134    0.0629425 ----
   457   2   1   F   0.00081498 0.00023201 0.00058210 0.00016571    0.0629365 ---+
   458   3   2   F   0.00081502 0.00023202 0.00078722 0.00022410    0.0629335 ---+
   459   2   1   F   0.00081510 0.00023206 0.00116437 0.00033150    0.0629295 ----
   460   3   2   F   0.00081522 0.00023214 0.00016617 0.00004732    0.0629235 --++
   461   4   2   F   0.00081523 0.00023212 0.00133651 0.00038053    0.0629226 ----
   462   2   1   F   0.00081535 0.00023216 0.00116473 0.00033165    0.0629157 ----
   463   2   1   F   0.00081546 0.00023222 0.00058244 0.00016587    0.0629097 ---+
   464   3   2   F   0.00081550 0.00023223 0.00078878 0.00022462    0.0629067 ---+
   465   2   1   F   0.00081557 0.00023228 0.00116505 0.00033181    0.0629027 ----
   466   3   2   F   0.00081568 0.00023236 0.00016511 0.00004703    0.0628966 --++
   467   4   2   F   0.00081569 0.00023233 0.00133809 0.00038111    0.0628958 ----
   468   2   1   F   0.00081580 0.00023238 0.00116537 0.00033195    0.0628889 ----
   469   2   1   F   0.00081590 0.00023243 0.00058276 0.00016602    0.0628829 ---+
   470   3   2   F   0.00081594 0.00023244 0.00079034 0.00022514    0.0628799 ---+
   471   2   1   F   0.00081601 0.00023248 0.00116567 0.00033210    0.0628758 ----
   472   3   2   F   0.00081611 0.00023256 0.00016400 0.00004673    0.0628697 --++
   473   4   2   F   0.00081612 0.00023254 0.00133965 0.00038170    0.0628689 ----
   474   2   1   F   0.00081622 0.00023258 0.00116597 0.00033224    0.0628620 ----
   475   2   1   F   0.00081631 0.00023264 0.00058305 0.00016616    0.0628560 ---+
   476   3   2   F   0.00081635 0.00023265 0.00079192 0.00022568    0.0628529 ---+
   477   2   1   F   0.00081641 0.00023269 0.00116624 0.00033239    0.0628488 ----
   478   3   2   F   0.00081650 0.00023276 0.00016283 0.00004642    0.0628428 --++
   479   4   2   F   0.00081650 0.00023274 0.00134119 0.00038228    0.0628420 ----
   480   2   1   F   0.00081660 0.00023278 0.00116651 0.00033252    0.0628350 ----
   481   2   1   F   0.00081668 0.00023283 0.00058332 0.00016630    0.0628290 ---+
   482   3   2   F   0.00081671 0.00023284 0.00079351 0.00022622    0.0628260 ---+
   483   2   1   F   0.00081677 0.00023288 0.00116676 0.00033267    0.0628219 ----
   484   3   2   F   0.00081685 0.00023295 0.00016159 0.00004608    0.0628158 --++
   485   4   2   F   0.00081686 0.00023293 0.00134270 0.00038286    0.0628150 ----
   486   2   1   F   0.00081694 0.00023297 0.00116700 0.00033280    0.0628080 ----
   487   2   1   F   0.00081702 0.00023302 0.00058356 0.00016644    0.0628020 ---+
   488   3   2   F   0.00081705 0.00023303 0.00079513 0.00022677    0.0627990 ---+
   489   2   1   F   0.00081710 0.00023307 0.00116722 0.00033294    0.0627948 ----
   490   3   2   F   0.00081717 0.00023314 0.00016028 0.00004573    0.0627888 --++
   491   4   2   F   0.00081718 0.00023312 0.00134420 0.00038345    0.0627879 ----
   492   2   1   F   0.00081725 0.00023315 0.00116744 0.00033306    0.0627810 ----
   493   2   1   F   0.00081732 0.00023320 0.00058377 0.00016657    0.0627749 ---+
   494   3   2   F   0.00081734 0.00023321 0.00079677 0.00022733    0.0627719 ---+
   495   2   1   F   0.00081739 0.00023325 0.00116764 0.00033319    0.0627678 ----
   496   3   2   F   0.00081745 0.00023331 0.00015890 0.00004535    0.0627617 --++
   497   4   2   F   0.00081746 0.00023329 0.00134568 0.00038403    0.0627609 ----
   498   2   1   F   0.00081752 0.00023333 0.00116783 0.00033331    0.0627539 ----
   499   2   1   F   0.00081758 0.00023338 0.00058396 0.00016669    0.0627478 ---+
   500   3   2   F   0.00081760 0.00023339 0.00079844 0.00022791    0.0627448 ---+
   501   2   1   F   0.00081764 0.00023342 0.00116800 0.00033344    0.0627406 ----
   502   3   2   F   0.00081770 0.00023348 0.00015743 0.00004495    0.0627346 --++
   503   4   2   F   0.00081770 0.00023347 0.00134716 0.00038462    0.0627337 ----
   504   2   1   F   0.00081776 0.00023350 0.00116817 0.00033355    0.0627267 ----
   505   2   1   F   0.00081781 0.00023355 0.00058412 0.00016681    0.0627207 ---+
   506   3   2   F   0.00081782 0.00023355 0.00080015 0.00022850    0.0627176 ---+
   507   2   1   F   0.00081786 0.00023359 0.00116831 0.00033368    0.0627135 ----
   508   3   2   F   0.00081791 0.00023364 0.00015586 0.00004452    0.0627074 --++
   509   4   2   F   0.00081791 0.00023363 0.00134864 0.00038522    0.0627066 ----
   510   2   1   F   0.00081796 0.00023366 0.00116845 0.00033378    0.0626995 ----
   511   2   1   F   0.00081800 0.00023370 0.00058426 0.00016692    0.0626935 ---+
   512   3   2   F   0.00081801 0.00023371 0.00080190 0.00022910    0.0626904 ---+
   513   2   1   F   0.00081804 0.00023374 0.00116857 0.00033390    0.0626862 ----
   514   3   2   F   0.00081808 0.00023380 0.00015419 0.00004407    0.0626802 --++
   515   4   2   F   0.00081808 0.00023378 0.00135013 0.00038582    0.0626794 ----
   516   2   1   F   0.00081812 0.00023381 0.00116869 0.00033400    0.0626723 ----
   517   2   1   F   0.00081816 0.00023386 0.00058437 0.00016703    0.0626662 ---+
   518   3   2   F   0.00081816 0.00023386 0.00080371 0.00022972    0.0626632 ---+
   519   2   1   F   0.00081819 0.00023389 0.00116878 0.00033412    0.0626590 ----
   520   3   2   F   0.00081822 0.00023395 0.00015241 0.00004358    0.0626529 --++
   521   4   2   F   0.00081822 0.00023393 0.00135164 0.00038643    0.0626521 ----
   522   2   1   F   0.00081825 0.00023396 0.00116887 0.00033421    0.0626450 ----
   523   2   1   F   0.00081828 0.00023400 0.00058445 0.00016714    0.0626389 ---+
   524   3   2   F   0.00081828 0.00023401 0.00080558 0.00023037    0.0626359 ---+
   525   2   1   F   0.00081830 0.00023403 0.00116894 0.00033432    0.0626317 ----
   526   3   2   F   0.00081832 0.00023408 0.00015049 0.00004305    0.0626256 --++
   527   4   2   F   0.00081832 0.00023407 0.00135318 0.00038705    0.0626248 ----
   528   2   1   F   0.00081834 0.00023410 0.00116900 0.00033441    0.0626177 ----
   529   2   1   F   0.00081836 0.00023414 0.00058451 0.00016723    0.0626116 ---+
   530   3   2   F   0.00081836 0.00023414 0.00080754 0.00023104    0.0626086 ---+
   531   2   1   F   0.00081837 0.00023417 0.00116904 0.00033451    0.0626044 ----
   532   3   2   F   0.00081839 0.00023422 0.00014843 0.00004248    0.0625982 --++
   533   4   2   F   0.00081839 0.00023420 0.00135476 0.00038769    0.0625975 ----
   534   2   1   F   0.00081840 0.00023423 0.00116908 0.00033460    0.0625904 ----
   535   2   1   F   0.00081841 0.00023426 0.00058455 0.00016732    0.0625843 ---+
   536   3   2   F   0.00081840 0.00023427 0.00080959 0.00023174    0.0625812 ---+
   537   2   1   F   0.00081841 0.00023429 0.00116910 0.00033469    0.0625770 ----
   538   3   2   F   0.00081842 0.00023434 0.00014619 0.00004186    0.0625709 --++
   539   4   2   F   0.00081842 0.00023433 0.00135639 0.00038835    0.0625701 ----
   540   2   1   F   0.00081842 0.00023435 0.00116911 0.00033477    0.0625630 ----
   541   2   1   F   0.00081842 0.00023438 0.00058456 0.00016741    0.0625569 ---+
   542   3   2   F   0.00081841 0.00023439 0.00081175 0.00023247    0.0625538 ---+
   543   2   1   F   0.00081841 0.00023441 0.00116910 0.00033486    0.0625496 ----
   544   3   2   F   0.00081841 0.00023445 0.00014377 0.00004119    0.0625434 --++
   545   4   2   F   0.00081841 0.00023444 0.00135810 0.00038904    0.0625427 ----
   546   2   1   F   0.00081840 0.00023446 0.00116909 0.00033493    0.0625356 ----
   547   2   1   F   0.00081840 0.00023450 0.00058454 0.00016749    0.0625295 ---+
   548   3   2   F   0.00081839 0.00023450 0.00081404 0.00023325    0.0625264 ---+
   549   2   1   F   0.00081838 0.00023452 0.00116906 0.00033501    0.0625221 ----
   550   3   2   F   0.00081837 0.00023456 0.00014113 0.00004045    0.0625160 --++
   551   4   2   F   0.00081837 0.00023455 0.00135989 0.00038975    0.0625153 ----
   552   2   1   F   0.00081835 0.00023457 0.00116902 0.00033508    0.0625081 ----
   553   2   1   F   0.00081834 0.00023460 0.00058450 0.00016756    0.0625020 ---+
   554   3   2   F   0.00081832 0.00023460 0.00081651 0.00023407    0.0624989 ---+
   555   2   1   F   0.00081831 0.00023462 0.00116896 0.00033516    0.0624946 ----
   556   3   2   F   0.00081830 0.00023466 0.00013823 0.00003964    0.0624885 --++
   557   4   2   F   0.00081829 0.00023465 0.00136181 0.00039050    0.0624878 ----
   558   2   1   F   0.00081827 0.00023467 0.00116889 0.00033522    0.0624806 ----
   559   2   1   F   0.00081825 0.00023469 0.00058443 0.00016763    0.0624745 ---+
   560   3   2   F   0.00081823 0.00023470 0.00081917 0.00023496    0.0624714 ---+
   561   2   1   F   0.00081821 0.00023471 0.00116882 0.00033529    0.0624671 ----
   562   3   2   F   0.00081819 0.00023475 0.00013504 0.00003874    0.0624610 --++
   563   4   2   F   0.00081818 0.00023474 0.00136389 0.00039130    0.0624603 ----
   564   2   1   F   0.00081815 0.00023476 0.00116872 0.00033535    0.0624531 ----
   565   2   1   F   0.00081812 0.00023478 0.00058434 0.00016769    0.0624470 ---+
   566   3   2   F   0.00081810 0.00023478 0.00082209 0.00023592    0.0624439 ---+
   567   2   1   F   0.00081807 0.00023480 0.00116862 0.00033541    0.0624396 ----
   568   3   2   F   0.00081804 0.00023483 0.00013149 0.00003774    0.0624334 --++
   569   4   2   F   0.00081804 0.00023482 0.00136616 0.00039216    0.0624328 ----
   570   2   1   F   0.00081799 0.00023483 0.00116850 0.00033546    0.0624256 ----
   571   2   1   F   0.00081795 0.00023486 0.00058422 0.00016775    0.0624194 ---+
   572   3   2   F   0.00081793 0.00023486 0.00082534 0.00023698    0.0624164 ---+
   573   2   1   F   0.00081790 0.00023487 0.00116837 0.00033552    0.0624120 ----
   574   3   2   F   0.00081786 0.00023490 0.00012750 0.00003662    0.0624059 --++
   575   4   2   F   0.00081785 0.00023489 0.00136869 0.00039309    0.0624052 ----
   576   2   1   F   0.00081780 0.00023491 0.00116823 0.00033556    0.0623980 ----
   577   2   1   F   0.00081776 0.00023492 0.00058408 0.00016780    0.0623918 ---+
   578   3   2   F   0.00081773 0.00023493 0.00082902 0.00023816    0.0623888 ---+
   579   2   1   F   0.00081769 0.00023494 0.00116808 0.00033561    0.0623844 ----
   580   3   2   F   0.00081765 0.00023496 0.00012298 0.00003534    0.0623783 --++
   581   4   2   F   0.00081764 0.00023496 0.00137155 0.00039413    0.0623776 ----
   582   2   1   F   0.00081758 0.00023497 0.00116791 0.00033565    0.0623704 ----
   583   2   1   F   0.00081752 0.00023498 0.00058392 0.00016784    0.0623642 ---+
   584   3   2   F   0.00081749 0.00023499 0.00083327 0.00023951    0.0623612 ---+
   585   2   1   F   0.00081745 0.00023500 0.00116773 0.00033569    0.0623568 ----
   586   3   2   F   0.00081740 0.00023501 0.00011781 0.00003387    0.0623506 --++
   587   4   2   F   0.00081739 0.00023501 0.00137484 0.00039529    0.0623500 ----
   588   2   1   F   0.00081732 0.00023502 0.00116754 0.00033573    0.0623427 ----
   589   2   1   F   0.00081726 0.00023504 0.00058373 0.00016787    0.0623366 ---+
   590   3   2   F   0.00081722 0.00023504 0.00083831 0.00024110    0.0623335 ---+
   591   2   1   F   0.00081718 0.00023505 0.00116734 0.00033576    0.0623291 ----
   592   3   2   F   0.00081711 0.00023506 0.00011184 0.00003217    0.0623229 --++
   593   4   2   F   0.00081710 0.00023506 0.00137869 0.00039661    0.0623224 ----
   594   2   1   F   0.00081702 0.00023507 0.00116712 0.00033579    0.0623151 ----
   595   2   1   F   0.00081696 0.00023508 0.00058351 0.00016790    0.0623089 ---+
   596   3   2   F   0.00081691 0.00023508 0.00084456 0.00024303    0.0623058 ---+
   597   2   1   F   0.00081686 0.00023508 0.00116689 0.00033582    0.0623014 ----
   598   3   2   F   0.00081679 0.00023510 0.00010486 0.00003018    0.0622952 --++
   599   4   2   F   0.00081679 0.00023509 0.00138328 0.00039815    0.0622947 ----
   600   2   1   F   0.00081669 0.00023510 0.00116665 0.00033584    0.0622874 ----
   601   2   1   F   0.00081662 0.00023511 0.00058327 0.00016793    0.0622812 ---+
   602   3   2   F   0.00081658 0.00023511 0.00085277 0.00024552    0.0622781 ---+
   603   2   1   F   0.00081652 0.00023512 0.00116640 0.00033586    0.0622736 ----
   604   3   2   F   0.00081644 0.00023512 0.00009686 0.00002789    0.0622675 --++
   605   4   2   F   0.00081643 0.00023512 0.00138873 0.00039994    0.0622670 ----
   606   2   1   F   0.00081633 0.00023513 0.00116613 0.00033588    0.0622596 ----
   607   2   1   F   0.00081625 0.00023513 0.00058301 0.00016794    0.0622535 ---+
   608   3   2   F   0.00081620 0.00023513 0.00086468 0.00024909    0.0622504 ---+
   609   4   1   F   0.00081614 0.00023514 0.00116585 0.00033589    0.0622458 ----
   610   5   2   F   0.00081605 0.00023514 0.00008908 0.00002567    0.0622397 --++
   611   6   2   F   0.00081604 0.00023514 0.00139451 0.00040183    0.0622392 ----
   612   7   2   F   0.00081594 0.00023514 0.00001951 0.00000563    0.0622318 --++
   613   8   2   F   0.00081593 0.00023515 0.00113265 0.00032641    0.0622317 ----
   614   9   2   F   0.00081585 0.00023515 0.00066561 0.00019185    0.0622257 ---+
   615   2   2   F   0.00081579 0.00023515 0.00035897 0.00010346    0.0622222 --++
   616   2   2   F   0.00081577 0.00023515 0.00118144 0.00034056    0.0622203 ----
   617   3   3   F   0.00081567 0.00023515 0.00016971 0.00004894    0.0622141 --++
   618   2   2   F   0.00081565 0.00023515 0.00120830 0.00034836    0.0622132 ----
   619   3   3   F   0.00081555 0.00023515 0.00023141 0.00006672    0.0622068 --++
   620   2   2   F   0.00081553 0.00023515 0.00128546 0.00037066    0.0622056 ----
   621   2   2   F   0.00081542 0.00023515 0.00011910 0.00003435    0.0621988 --++
   622   2   2   F   0.00081541 0.00023515 0.00103425 0.00029826    0.0621981 ---+
   623   3   3   F   0.00081532 0.00023515 0.00033329 0.00009613    0.0621927 --++
   624   3   3   F   0.00081529 0.00023515 0.00068202 0.00019671    0.0621909 ---+
   625   3   3   F   0.00081523 0.00023515 0.00079234 0.00022855    0.0621873 ---+
   626   4   4   F   0.00081516 0.00023515 0.00394479 0.00113797    0.0621831 ----
   627   5   3   F   0.00081494 0.00023515 0.00707672 0.00204165    0.0621622 ----
   628   2   2   F   0.00081507 0.00023513 0.00472285 0.00136246    0.0621248 ----
   629   3   3   F   0.00081497 0.00023511 0.00774970 0.00223566    0.0620998 ----
   630   2   1   F   0.00081581 0.00023509 0.00116539 0.00033582    0.0620588 ----
   631   3   3   F   0.00081458 0.00023512 0.02247296 0.00648190    0.0620526 ----
   632   2   1   F   0.00081999 0.00023531 0.00117135 0.00033614    0.0619339 ----
   633   3   3   F   0.00081630 0.00023497 0.00221124 0.00063684    0.0619278 ----
   634   4   4   F   0.00081407 0.00023493 0.02233821 0.00643857    0.0619161 ----
   635   2   1   F   0.00081921 0.00023570 0.00117024 0.00033670    0.0617985 ----
   636   2   2   F   0.00081420 0.00023495 0.00075147 0.00021685    0.0617924 ---+
   637   3   3   F   0.00081041 0.00023465 0.00106030 0.00030619    0.0617884 ----
   638   4   4   F   0.00080639 0.00023414 0.00185481 0.00053792    0.0617828 ----
   639   5   5   F   0.00080205 0.00023409 0.00246171 0.00071582    0.0617730 ----
   640   6   6   F   0.00079761 0.00023399 0.00346289 0.00101026    0.0617599 ----
   641   7   7   F   0.00079388 0.00023389 0.01192017 0.00348636    0.0617415 ----
   642   8   8   F   0.00079006 0.00023363 0.04061919 0.01188407    0.0616780 ----
   643   2   1   F   0.00079815 0.00023730 0.00114015 0.00033898    0.0614625 ----
   644   2   2   F   0.00079790 0.00023355 0.00085130 0.00024918    0.0614563 ---+
   645   3   3   F   0.00079413 0.00023342 0.00084712 0.00024762    0.0614519 ---+
   646   4   4   F   0.00079197 0.00023186 0.00138050 0.00040396    0.0614474 ----
   647   5   5   F   0.00079005 0.00023180 0.00204495 0.00059905    0.0614401 ----
   648   6   6   F   0.00078745 0.00023163 0.00347282 0.00101910    0.0614293 ----
   649   7   7   F   0.00078416 0.00023149 0.00914773 0.00268808    0.0614109 ----
   650   8   8   F   0.00077965 0.00023114 0.04165990 0.01224909    0.0613624 ----
   651   2   1   F   0.00077828 0.00023359 0.00111177 0.00033368    0.0611431 ----
   652   2   2   F   0.00077807 0.00023015 0.00084326 0.00024944    0.0611372 ---+
   653   3   3   F   0.00077377 0.00023009 0.00083579 0.00024718    0.0611327 ---+
   654   4   4   F   0.00077105 0.00022860 0.00182415 0.00054047    0.0611283 ----
   655   5   5   F   0.00076755 0.00022848 0.00300137 0.00089068    0.0611187 ----
   656   6   6   F   0.00076261 0.00022817 0.00491659 0.00146246    0.0611029 ----
   657   7   7   F   0.00075729 0.00022789 0.00736560 0.00219517    0.0610769 ----
   658   8   8   F   0.00075455 0.00022746 0.01694915 0.00505630    0.0610379 ----
   659   9   9   F   0.00075766 0.00022657 0.02487932 0.00741548    0.0609487 ----
   660   2   1   F   0.00076496 0.00022643 0.00109275 0.00032345    0.0608187 ----
   661   3   3   F   0.00076405 0.00022643 0.04092166 0.01217910    0.0608130 ----
   662   2   1   F   0.00077522 0.00022974 0.00110740 0.00032818    0.0606026 ----
   663   2   2   F   0.00076960 0.00022498 0.00076323 0.00022312    0.0605970 ---+
   664   3   3   F   0.00076054 0.00022367 0.00109749 0.00031905    0.0605932 ----
   665   4   4   F   0.00075060 0.00022071 0.00176156 0.00051618    0.0605877 ----
   666   5   5   F   0.00074046 0.00022034 0.00190425 0.00056172    0.0605788 ----
   667   6   6   F   0.00073139 0.00021985 0.00218561 0.00065076    0.0605692 ----
   668   7   7   F   0.00072437 0.00021963 0.00532936 0.00159526    0.0605580 ----
   669   8   8   F   0.00071341 0.00021910 0.01166101 0.00350333    0.0605308 ----
   670   9   9   F   0.00070629 0.00021811 0.01191250 0.00359181    0.0604712 ----
   671   2   1   F   0.00070976 0.00021739 0.00101390 0.00031054    0.0604105 ----
   672   3   3   F   0.00070756 0.00021740 0.02731768 0.00825978    0.0604053 ----
   673   2   1   F   0.00069015 0.00021672 0.00098589 0.00030958    0.0602672 ----
   674   3   3   F   0.00069763 0.00021675 0.01355288 0.00410593    0.0602620 ----
   675   2   1   F   0.00068430 0.00021446 0.00097754 0.00030636    0.0601942 ----
   676   3   3   F   0.00069176 0.00021452 0.01452185 0.00441314    0.0601891 ----
   677   2   1   F   0.00068047 0.00021438 0.00097206 0.00030625    0.0601166 ----
   678   3   3   F   0.00068619 0.00022105 0.01279600 0.00389449    0.0601117 ----
   679   2   1   F   0.00067351 0.00021135 0.00096211 0.00030191    0.0600482 ----
   680   3   3   F   0.00067850 0.00021514 0.00120571 0.00037110    0.0600434 ----
   681   4   4   F   0.00067840 0.00020895 0.01567782 0.00480587    0.0600373 ----
   682   2   1   F   0.00066763 0.00020857 0.00095372 0.00029795    0.0599598 ---+
   683   3   3   F   0.00066810 0.00021332 0.02977835 0.00913264    0.0599551 ----
   684   2   1   F   0.00065037 0.00020776 0.00092907 0.00029678    0.0598101 ---+
   685   3   3   F   0.00065292 0.00021911 0.00652529 0.00200181    0.0598057 ----
   686   2   2   F   0.00064973 0.00020193 0.00046105 0.00014726    0.0597742 ---+
   687   3   3   F   0.00064710 0.00020373 0.00045430 0.00014158    0.0597720 ---+
   688   4   4   F   0.00064611 0.00020071 0.00528589 0.00163502    0.0597697 ----
   689   5   1   F   0.00063525 0.00020029 0.00090746 0.00028612    0.0597442 ---+
   690   6   6   F   0.00063422 0.00020123 0.02706949 0.00841688    0.0597398 ----
   691   7   7   F   0.00063276 0.00019662 0.02913679 0.00908308    0.0596101 ----
   692   2   1   F   0.00059338 0.00019473 0.00084766 0.00027817    0.0594734 ---+
   693   3   3   F   0.00060053 0.00019299 0.03408370 0.01066762    0.0594693 ----
[...]
    O16-C14-H24=175.0924     H22-C6-H24=169.9767     H22-C7-H24=105.8522
     H23-C6-H24= 63.2589     C7-H23-H24= 97.0124    C10-H23-H24=134.3077
    C11-H23-H24=168.8233    C13-H24-H23= 92.5294    C14-H24-H23=126.9879
     C4-C13-H25= 86.1433     C5-C13-H25=115.8876     C6-C13-H25=146.7362
     C7-C13-H25=178.6418     C4-C14-H25=149.2056     C5-C14-H25=178.6103
     C6-C14-H25=151.1007    C13-C14-H25=121.5925     O3-C15-H25=178.9509
     C4-C15-H25=146.2469     C5-C15-H25=116.94       C6-C15-H25= 86.6364
    C13-H25-C15= 67.9278    C15-C14-H25=118.8362     O3-O16-H25=117.0143
     C4-O16-H25= 85.8698    C13-H25-O16= 98.9952    O16-C14-H25= 89.5696
    O16-C15-H25= 94.0433    H23-C13-H25=156.2323     C6-H24-H25= 94.9064
     C7-H24-H25=128.3477    H24-C13-H25= 94.0211    H24-C14-H25= 95.338 
    C15-H25-H24= 93.7337    O16-H25-H24=124.8011    H23-H24-H25=152.7024
      C1-O3-H26=119.3783      C2-O3-H26=156.6313      C2-C4-H26= 91.6654
      C4-O3-H26= 84.6113      C5-O3-H26=111.6231      C5-C4-H26=173.5096
      C6-C4-H26=143.0887     C13-C4-H26=112.6651     C14-C4-H26= 82.7444
     O3-H26-C15= 72.1848     C4-C15-H26= 90.042      C5-C15-H26=119.3489
     C6-C15-H26=149.6525    C13-C15-H26=179.739     C14-C15-H26=150.0886
     O3-H26-O16=115.3897     C4-H26-O16= 80.1797    C14-O16-H26=137.4399
    C15-O16-H26=107.1273     H17-O3-H26=103.7412     H18-O3-H26=103.7171
     H20-O3-H26=153.7927     H20-C4-H26=105.3692     H21-O3-H26=153.8183
     H21-C4-H26=105.3716     H22-O3-H26=134.8851     H22-C4-H26=160.4274
    H25-C15-H26=123.7111    H25-O16-H26=162.0166
 Framework group  C1[X(C12H10N2O2)]
 Deg. of freedom   72
                         Standard orientation:                         
 ---------------------------------------------------------------------
 Center     Atomic     Atomic              Coordinates (Angstroms)
 Number     Number      Type              X           Y           Z
 ---------------------------------------------------------------------
    1          6             0        3.576992    2.797266    0.000272
    2          6             0        2.275317    2.018452    0.000362
    3          8             0        2.602538    0.618520    0.000404
    4          6             0        1.585937   -0.294059    0.000184
    5          6             0        0.233010   -0.012039    0.000572
    6          6             0       -0.713589   -1.069998    0.000262
    7          6             0       -2.144748   -0.886193    0.000553
    8          7             0       -2.014023    2.676862   -0.001796
    9          6             0       -2.419360    1.584918   -0.000536
   10          6             0       -2.920987    0.245689    0.000249
   11          6             0       -4.348063    0.116614    0.000459
   12          7             0       -5.506789    0.005137    0.000434
   13          6             0       -0.238906   -2.398467   -0.000340
   14          6             0        1.121198   -2.682798   -0.000620
   15          6             0        2.042031   -1.637544   -0.000324
   16          8             0        3.366718   -1.894032   -0.000250
   17          1             0        4.170505    2.564103   -0.889428
   18          1             0        4.171457    2.562707    0.888971
   19          1             0        3.363966    3.871124    0.001246
   20          1             0        1.672774    2.246283   -0.888108
   21          1             0        1.672811    2.246313    0.888861
   22          1             0       -0.100336    1.015731    0.001217
   23          1             0       -2.713951   -1.813124    0.000850
   24          1             0       -0.952963   -3.217158   -0.000703
   25          1             0        1.488389   -3.703559   -0.001113
   26          1             0        3.825986   -1.033374   -0.000051
 ---------------------------------------------------------------------
 Rotational constants (GHZ):      0.8163133      0.3109713      0.2258281
 Isotopes: C-12,C-12,O-16,C-12,C-12,C-12,C-12,N-14,C-12,C-12,C-12,N-14,C-12,C-12,
 C-12,O-16,H-1,H-1,H-1,H-1,H-1,H-1,H-1,H-1,H-1,H-1
   260 basis functions      488 primitive gaussians
    56 alpha electrons       56 beta electrons
       nuclear repulsion energy       964.5122521273 Hartrees.
 Initial guess read from the checkpoint file:
 mol-cas-15728-34-4.chk
 SCF Done:  E(RB+HF-LYP) =  -723.194749372     A.U. after    3 cycles
             Convg  =    0.1150D-08             -V/T =  2.0094
             S**2   =   0.0000
 NROrb=    260 NOA=    56 NOB=    56 NVA=   204 NVB=   204
          Differentiating once with respect to magnetic field using GIAOs.
 Symmetry not used in FoFDir.
 MinBra= 0 MaxBra= 2 Meth= 1.
 IRaf=       0 NMat=   1 IRICut=       1 DoRegI=T DoRafI=F ISym2E= 0 JSym2E=0.
 Calculating GIAO nuclear magnetic shielding tensors.
 SCF GIAO Magnetic shielding tensor (ppm):
  1  C    Isotropic =   174.6407   Anisotropy =    21.5189
   XX=   182.9805   YX=    10.6814   ZX=     0.0063
   XY=     3.9319   YY=   180.0980   ZY=    -0.0032
   XZ=    -0.0033   YZ=    -0.0057   ZZ=   160.8437
   Eigenvalues:   160.8437   174.0918   188.9867
  2  C    Isotropic =   126.4996   Anisotropy =    61.2473
   XX=   113.1903   YX=    -6.3074   ZX=     0.0004
   XY=   -12.7379   YY=   165.6562   ZY=    -0.0012
   XZ=     0.0169   YZ=    -0.0007   ZZ=   100.6523
   Eigenvalues:   100.6523   111.5154   167.3311
  3  O    Isotropic =   233.4610   Anisotropy =    65.8587
   XX=   223.5798   YX=    62.5537   ZX=     0.0245
   XY=    28.4365   YY=   199.4365   ZY=    -0.0296
   XZ=     0.0726   YZ=    -0.0856   ZZ=   277.3668
   Eigenvalues:   164.4387   258.5776   277.3668
  4  C    Isotropic =    50.7367   Anisotropy =   109.6628
   XX=    27.6431   YX=   -24.7569   ZX=     0.0116
   XY=    -6.5702   YY=     0.7219   ZY=    -0.0396
   XZ=    -0.0165   YZ=    -0.0684   ZZ=   123.8452
   Eigenvalues:    -6.4703    34.8352   123.8452
  5  C    Isotropic =    85.3473   Anisotropy =   147.3324
   XX=    56.5780   YX=     0.6944   ZX=     0.0274
   XY=    16.9192   YY=    15.8951   ZY=    -0.0927
   XZ=     0.0056   YZ=    -0.0868   ZZ=   183.5689
   Eigenvalues:    14.0705    58.4026   183.5689
  6  C    Isotropic =    71.2292   Anisotropy =   157.9288
   XX=     3.9752   YX=     3.3612   ZX=     0.0261
   XY=     3.9080   YY=    33.1974   ZY=    -0.0540
   XZ=     0.0334   YZ=    -0.0482   ZZ=   176.5151
   Eigenvalues:     3.5299    33.6427   176.5151
  7  C    Isotropic =    37.1155   Anisotropy =   161.2039
   XX=   -18.5738   YX=   -51.2285   ZX=     0.0304
   XY=   -58.6025   YY=   -14.6645   ZY=     0.0672
   XZ=     0.0422   YZ=     0.0534   ZZ=   144.5847
   Eigenvalues:   -71.5694    38.3311   144.5848
  8  N    Isotropic =   -26.3661   Anisotropy =   370.2785
   XX=   -91.9244   YX=   101.4176   ZX=    -0.1099
   XY=   114.3645   YY=   183.2256   ZY=    -0.3465
   XZ=    -0.1566   YZ=    -0.4186   ZZ=  -170.3995
   Eigenvalues:  -170.3999  -129.1846   220.4862
  9  C    Isotropic =    84.5079   Anisotropy =   299.8308
   XX=    23.1397   YX=   100.9580   ZX=    -0.1023
   XY=    98.6289   YY=   246.2760   ZY=    -0.2678
   XZ=    -0.1066   YZ=    -0.2977   ZZ=   -15.8921
   Eigenvalues:   -15.8925   -14.9791   284.3951
 10  C    Isotropic =   116.1334   Anisotropy =    63.9781
   XX=    74.8412   YX=   -42.3108   ZX=     0.0308
   XY=   -31.6498   YY=   114.7736   ZY=     0.0199
   XZ=    -0.0068   YZ=     0.0279   ZZ=   158.7855
   Eigenvalues:    52.7814   136.8335   158.7855
 11  C    Isotropic =    85.3779   Anisotropy =   303.1036
   XX=   284.4958   YX=    29.2376   ZX=    -0.0066
   XY=    30.2456   YY=   -12.2946   ZY=     0.0004
   XZ=     0.0035   YZ=     0.0026   ZZ=   -16.0677
   Eigenvalues:   -16.0677   -15.2456   287.4469
 12  N    Isotropic =   -18.4128   Anisotropy =   390.5578
   XX=   239.2495   YX=    36.2867   ZX=    -0.0033
   XY=    27.2653   YY=  -130.6840   ZY=    -0.0116
   XZ=    -0.0065   YZ=    -0.0129   ZZ=  -163.8039
   Eigenvalues:  -163.8039  -133.3936   241.9591
 13  C    Isotropic =    62.9906   Anisotropy =   145.2367
   XX=    26.1162   YX=   -36.6350   ZX=    -0.0029
   XY=   -36.0129   YY=     3.0405   ZY=    -0.0753
   XZ=     0.0048   YZ=    -0.0354   ZZ=   159.8150
   Eigenvalues:   -23.5340    52.6907   159.8151
 14  C    Isotropic =    81.8411   Anisotropy =   133.1434
   XX=    58.6764   YX=    20.8424   ZX=     0.0205
   XY=    15.2294   YY=    16.2435   ZY=    -0.0691
   XZ=     0.0031   YZ=    -0.0526   ZZ=   170.6033
   Eigenvalues:     9.6133    65.3065   170.6034
 15  C    Isotropic =    43.7808   Anisotropy =   129.8939
   XX=   -14.3965   YX=    15.9531   ZX=    -0.0066
   XY=     7.9243   YY=    15.3621   ZY=    -0.0353
   XZ=     0.0192   YZ=    -0.0433   ZZ=   130.3767
   Eigenvalues:   -18.5940    19.5596   130.3767
 16  O    Isotropic =   217.7250   Anisotropy =   131.4238
   XX=   194.4257   YX=   -28.7394   ZX=     0.0015
   XY=    -9.8974   YY=   153.4085   ZY=    -0.0443
   XZ=    -0.0473   YZ=    -0.0687   ZZ=   305.3409
   Eigenvalues:   145.7426   202.0916   305.3409
 17  H    Isotropic =    30.6683   Anisotropy =     7.8165
   XX=    32.0419   YX=     0.8230   ZX=    -4.4043
   XY=     1.4643   YY=    28.6532   ZY=     0.2197
   XZ=    -3.7994   YZ=    -0.0324   ZZ=    31.3098
   Eigenvalues:    27.0855    29.0401    35.8793
 18  H    Isotropic =    30.6690   Anisotropy =     7.8140
   XX=    32.0502   YX=     0.8167   ZX=     4.4054
   XY=     1.4578   YY=    28.6578   ZY=    -0.2263
   XZ=     3.8005   YZ=     0.0259   ZZ=    31.2989
   Eigenvalues:    27.0847    29.0438    35.8783
 19  H    Isotropic =    30.9086   Anisotropy =     9.2945
   XX=    29.0053   YX=     0.9813   ZX=    -0.0010
   XY=     0.5186   YY=    37.0355   ZY=     0.0077
   XZ=    -0.0013   YZ=     0.0063   ZZ=    26.6851
   Eigenvalues:    26.6851    28.9359    37.1050
 20  H    Isotropic =    28.0890   Anisotropy =     5.5225
   XX=    29.4385   YX=     0.6731   ZX=     2.5393
   XY=    -0.7008   YY=    29.6379   ZY=    -3.1881
   XZ=     1.9959   YZ=    -2.8943   ZZ=    25.1905
   Eigenvalues:    23.0023    29.4941    31.7707
 21  H    Isotropic =    28.0885   Anisotropy =     5.5257
   XX=    29.4374   YX=     0.6739   ZX=    -2.5411
   XY=    -0.7014   YY=    29.6395   ZY=     3.1894
   XZ=    -1.9986   YZ=     2.8946   ZZ=    25.1886
   Eigenvalues:    22.9992    29.4940    31.7723
 22  H    Isotropic =    24.3165   Anisotropy =    12.3547
   XX=    32.5521   YX=    -0.0095   ZX=     0.0023
   XY=    -0.1687   YY=    23.4910   ZY=    -0.0012
   XZ=     0.0021   YZ=     0.0025   ZZ=    16.9065
   Eigenvalues:    16.9065    23.4901    32.5530
 23  H    Isotropic =    25.3104   Anisotropy =     8.6201
   XX=    27.5953   YX=    -4.1028   ZX=    -0.0003
   XY=    -4.3032   YY=    25.9544   ZY=     0.0013
   XZ=    -0.0001   YZ=     0.0002   ZZ=    22.3817
   Eigenvalues:    22.3817    22.4925    31.0572
 24  H    Isotropic =    25.4887   Anisotropy =     5.5637
   XX=    27.5029   YX=    -2.0871   ZX=    -0.0018
   XY=    -1.7549   YY=    27.0206   ZY=     0.0014
   XZ=     0.0008   YZ=     0.0019   ZZ=    21.9426
   Eigenvalues:    21.9426    25.3257    29.1978
 25  H    Isotropic =    25.4732   Anisotropy =     4.8481
   XX=    28.0053   YX=     1.4171   ZX=     0.0000
   XY=     0.8909   YY=    26.8025   ZY=     0.0017
   XZ=    -0.0007   YZ=     0.0025   ZZ=    21.6118
   Eigenvalues:    21.6118    26.1026    28.7053
 26  H    Isotropic =    26.2378   Anisotropy =    12.5989
   XX=    29.2294   YX=     2.1140   ZX=     0.0005
   XY=     1.8613   YY=    33.9065   ZY=     0.0049
   XZ=     0.0006   YZ=     0.0037   ZZ=    15.5775
   Eigenvalues:    15.5775    28.4988    34.6371

 **********************************************************************

            Population analysis using the SCF density.

 **********************************************************************

 Alpha  occ. eigenvalues --  -19.21037 -19.20647 -14.35172 -14.34188 -10.28298
 Alpha  occ. eigenvalues --  -10.27632 -10.27049 -10.26674 -10.25458 -10.24800
 Alpha  occ. eigenvalues --  -10.23816 -10.22999 -10.22299 -10.21914 -10.21430
 Alpha  occ. eigenvalues --  -10.20337  -1.10689  -1.07760  -0.92564  -0.90798
 Alpha  occ. eigenvalues --   -0.88719  -0.84334  -0.80343  -0.77814  -0.75940
 Alpha  occ. eigenvalues --   -0.69475  -0.67414  -0.62825  -0.61950  -0.59344
 Alpha  occ. eigenvalues --   -0.58308  -0.54213  -0.52563  -0.50870  -0.50613
 Alpha  occ. eigenvalues --   -0.46732  -0.44772  -0.44761  -0.43557  -0.42175
 Alpha  occ. eigenvalues --   -0.41746  -0.41481  -0.40577  -0.40336  -0.37869
 Alpha  occ. eigenvalues --   -0.37632  -0.37142  -0.36671  -0.36511  -0.35041
 Alpha  occ. eigenvalues --   -0.34769  -0.34493  -0.33584  -0.29588  -0.26397
 Alpha  occ. eigenvalues --   -0.22970
 Alpha virt. eigenvalues --   -0.09581  -0.01783  -0.00414   0.01249   0.04172
 Alpha virt. eigenvalues --    0.04828   0.06007   0.08077   0.08912   0.11099
 Alpha virt. eigenvalues --    0.11293   0.12691   0.13113   0.14011   0.14899
 Alpha virt. eigenvalues --    0.15841   0.16553   0.16891   0.17461   0.18541
 Alpha virt. eigenvalues --    0.20041   0.22432   0.22953   0.25386   0.27222
 Alpha virt. eigenvalues --    0.29511   0.32349   0.32674   0.37466   0.40352
 Alpha virt. eigenvalues --    0.41081   0.42851   0.46932   0.47962   0.48338
 Alpha virt. eigenvalues --    0.49942   0.50759   0.52331   0.52447   0.52714
 Alpha virt. eigenvalues --    0.54350   0.55053   0.55118   0.55707   0.56404
 Alpha virt. eigenvalues --    0.57820   0.58159   0.58166   0.59664   0.61488
 Alpha virt. eigenvalues --    0.62128   0.62330   0.64421   0.64818   0.65456
 Alpha virt. eigenvalues --    0.65981   0.67355   0.70409   0.72058   0.72385
 Alpha virt. eigenvalues --    0.73076   0.73244   0.76600   0.77862   0.78426
 Alpha virt. eigenvalues --    0.79705   0.81902   0.82729   0.84716   0.84917
 Alpha virt. eigenvalues --    0.86011   0.86085   0.86846   0.88438   0.88642
 Alpha virt. eigenvalues --    0.88836   0.90644   0.91500   0.93256   0.93478
 Alpha virt. eigenvalues --    0.94060   0.96588   0.97065   1.00161   1.01280
 Alpha virt. eigenvalues --    1.03032   1.03792   1.06123   1.07366   1.09205
 Alpha virt. eigenvalues --    1.13864   1.15225   1.19744   1.20791   1.22879
 Alpha virt. eigenvalues --    1.23882   1.25310   1.26199   1.30331   1.31713
 Alpha virt. eigenvalues --    1.31906   1.33795   1.36849   1.38590   1.40083
 Alpha virt. eigenvalues --    1.41816   1.41937   1.44151   1.45388   1.46883
 Alpha virt. eigenvalues --    1.47384   1.51301   1.51392   1.52457   1.53224
 Alpha virt. eigenvalues --    1.56538   1.63385   1.66415   1.66758   1.69542
 Alpha virt. eigenvalues --    1.69760   1.72386   1.73394   1.75110   1.78213
 Alpha virt. eigenvalues --    1.79266   1.80816   1.82485   1.82920   1.85586
 Alpha virt. eigenvalues --    1.87495   1.87719   1.87954   1.90384   1.92758
 Alpha virt. eigenvalues --    1.92976   1.93927   1.94331   1.98076   1.99031
 Alpha virt. eigenvalues --    2.00697   2.01653   2.03203   2.03837   2.04257
 Alpha virt. eigenvalues --    2.05529   2.09060   2.10396   2.11498   2.13753
 Alpha virt. eigenvalues --    2.17523   2.17900   2.20890   2.22081   2.25644
 Alpha virt. eigenvalues --    2.27170   2.27702   2.33513   2.33609   2.37476
 Alpha virt. eigenvalues --    2.41332   2.41886   2.42608   2.46424   2.54234
 Alpha virt. eigenvalues --    2.56966   2.56975   2.60390   2.62397   2.63818
 Alpha virt. eigenvalues --    2.68174   2.68948   2.69914   2.75317   2.76279
 Alpha virt. eigenvalues --    2.78264   2.81090   2.82665   2.86375   2.90058
 Alpha virt. eigenvalues --    2.90771   3.00406   3.03231   3.13364   3.21144
 Alpha virt. eigenvalues --    3.28821   3.38663   3.45668   3.91645   3.99193
 Alpha virt. eigenvalues --    4.05252   4.07176   4.12115   4.15022   4.16424
 Alpha virt. eigenvalues --    4.17689   4.22780   4.29375   4.36929   4.43029
 Alpha virt. eigenvalues --    4.49234   4.55068   4.77718   4.94593
          Condensed to atoms (all electrons):
 Total atomic charges:
              1
  1  C   -0.465282
  2  C   -0.040573
  3  O   -0.566300
  4  C    0.362754
  5  C   -0.269463
  6  C    0.171028
  7  C   -0.170738
  8  N   -0.510231
  9  C    0.315368
 10  C    0.105623
 11  C    0.279638
 12  N   -0.468512
 13  C   -0.191343
 14  C   -0.169732
 15  C    0.318485
 16  O   -0.629233
 17  H    0.165145
 18  H    0.165142
 19  H    0.166807
 20  H    0.164947
 21  H    0.164902
 22  H    0.186533
 23  H    0.175025
 24  H    0.148830
 25  H    0.157543
 26  H    0.433636
 Sum of Mulliken charges=   0.00000
 Atomic charges with hydrogens summed into heavy atoms:
              1
  1  C    0.031813
  2  C    0.289276
  3  O   -0.566300
  4  C    0.362754
  5  C   -0.082930
  6  C    0.171028
  7  C    0.004287
  8  N   -0.510231
  9  C    0.315368
 10  C    0.105623
 11  C    0.279638
 12  N   -0.468512
 13  C   -0.042513
 14  C   -0.012189
 15  C    0.318485
 16  O   -0.195597
 17  H    0.000000
 18  H    0.000000
 19  H    0.000000
 20  H    0.000000
 21  H    0.000000
 22  H    0.000000
 23  H    0.000000
 24  H    0.000000
 25  H    0.000000
 26  H    0.000000
 Sum of Mulliken charges=   0.00000
 Electronic spatial extent (au):  <R**2>=  4487.0443
 Charge=     0.0000 electrons
 Dipole moment (Debye):
    X=     6.3283    Y=    -1.4961    Z=     0.0023  Tot=     6.5027

 Test job not archived.
 1\1\GINC-CN01\SP\RB3LYP\6-31G(d)\C12H10N2O2\STEIN\05-Jul-2001\0\\#T B3
 LYP/6-31G(D) NMR TEST GEOM=ALLCHECK GUESS=READ\\Gaussian input file co
 ntructed from a MDL molfile using BABEL for conversion to Gaussian z-m
 atrix. (c) 1999 Christoph Steinbeck Geometry optimization/NMR shieldin
 g calculation: mol-cas-15728-34-4 <chemname> 2-(3-ethoxy-4-hydroxybenz
 ylidene)malononitrile
 </chemname> <casno> 15728-34-4
 </casno>\\0,1\C
 ,4.0946825278,1.0749943822,1.6424158829\C,2.8009772929,0.5475203275,1.
 0516491297\O,1.8161866532,1.5900320682,1.1528387724\C,0.555886462,1.35
 15093601,0.682700592\C,0.1074054639,0.1809837475,0.1007371646\C,-1.237
 0806139,0.0775770893,-0.3431006921\C,-1.8055471063,-1.0953718674,-0.96
 20002479\N,1.1846771506,-3.0302890267,-0.7973511885\C,0.0848077574,-2.
 7097708478,-1.007579759\C,-1.266608094,-2.3202836587,-1.2666948794\C,-
 2.089906657,-3.3118060344,-1.89300829\N,-2.7639224892,-4.1131427414,-2
 .4015707031\C,-2.0892485871,1.1891878336,-0.1749120851\C,-1.6390264263
 ,2.3664250398,0.4100165373\C,-0.3179272082,2.4578386757,0.8422546179\O
 ,0.1374439758,3.5928852191,1.4122440212\H,3.9607293898,1.3456923197,2.
 69454127\H,4.4415765077,1.9573808746,1.0953760816\H,4.869458259,0.3039
 990327,1.5804517141\H,2.4445606837,-0.3369806326,1.5947613361\H,2.9257
 312579,0.2727216248,-0.0034746619\H,0.7837706893,-0.6536541938,-0.0147
 641529\H,-2.852582238,-0.9915883533,-1.2379318332\H,-3.1204192754,1.12
 29040933,-0.5102108089\H,-2.2925829623,3.2223811127,0.5403465324\H,1.0
 749411596,3.4450039156,1.6378275903\\Version=x86-Linux-G98RevA.7\HF=-7
 23.1947494\RMSD=1.150e-09\Dipole=0.7686218,2.1943094,1.0674341\PG=C01 
 [X(C12H10N2O2)]\\@


 IF I AM NOT FOR MYSELF, WHO WILL BE?
 BUT IF I AM ONLY FOR MYSELF, WHAT AM I?
 THOUGH A SEEKER SINCE MY BIRTH,
 HERE IS ALL I'VE LEARNED ON EARTH,
 THIS IS THE GIST OF WHAT I KNOW:
 GIVE ADVICE AND BUY A FOE.

 PRESSED FOR RULES AND VERITIES,
 ALL I RECOLLECT ARE THESE:
 FEED A COLD TO STARVE A FEVER,
 ARGUE WITH NO TRUE-BELIEVER.
 THINK-TOO-LONG IS NEVER-ACT,
 SCRATCH A MYTH AND FIND A FACT.

 STITCH IN TIME SAVES TWENTY STITCHES,
 GIVE THE RICH TO PLEASE THEM, RICHES.
 GIVE TO LOVE YOU HEARTH AND HALL,
 BUT DO NOT GIVE ADVICE AT ALL.

                                  -- HILLEL
 Job cpu time:  0 days  0 hours  0 minutes 14.2 seconds.
 File lengths (MBytes):  RWF=   37 Int=    0 D2E=    0 Chk=    6 Scr=    1
 Normal termination of Gaussian 98.
